# vtk DataFile Version 2.0
2D Simulation Python
ASCII
DATASET UNSTRUCTURED_GRID
FIELD FieldData 1
NODES 1 2 int
3798 7382

POINTS 3798 double
0.0 0.0 0.0
1.0 0.0 0.0
1.0 1.0 0.0
0.0 1.0 0.0
0.0188679245283 0.0 0.0
0.0377358490565 0.0 0.0
0.0566037735848 0.0 0.0
0.0754716981131 0.0 0.0
0.0943396226413 0.0 0.0
0.11320754717 0.0 0.0
0.132075471698 0.0 0.0
0.150943396226 0.0 0.0
0.169811320754 0.0 0.0
0.188679245283 0.0 0.0
0.207547169811 0.0 0.0
0.226415094339 0.0 0.0
0.245283018867 0.0 0.0
0.264150943396 0.0 0.0
0.283018867924 0.0 0.0
0.301886792452 0.0 0.0
0.32075471698 0.0 0.0
0.339622641509 0.0 0.0
0.358490566037 0.0 0.0
0.377358490565 0.0 0.0
0.396226415093 0.0 0.0
0.415094339622 0.0 0.0
0.43396226415 0.0 0.0
0.452830188678 0.0 0.0
0.471698113206 0.0 0.0
0.490566037735 0.0 0.0
0.509433962263 0.0 0.0
0.528301886791 0.0 0.0
0.54716981132 0.0 0.0
0.566037735848 0.0 0.0
0.584905660376 0.0 0.0
0.603773584905 0.0 0.0
0.622641509433 0.0 0.0
0.641509433961 0.0 0.0
0.66037735849 0.0 0.0
0.679245283018 0.0 0.0
0.698113207546 0.0 0.0
0.716981132075 0.0 0.0
0.735849056603 0.0 0.0
0.754716981131 0.0 0.0
0.77358490566 0.0 0.0
0.792452830188 0.0 0.0
0.811320754716 0.0 0.0
0.830188679245 0.0 0.0
0.849056603773 0.0 0.0
0.867924528302 0.0 0.0
0.88679245283 0.0 0.0
0.905660377358 0.0 0.0
0.924528301887 0.0 0.0
0.943396226415 0.0 0.0
0.962264150943 0.0 0.0
0.981132075472 0.0 0.0
1.0 0.0188679245283 0.0
1.0 0.0377358490565 0.0
1.0 0.0566037735848 0.0
1.0 0.0754716981131 0.0
1.0 0.0943396226413 0.0
1.0 0.11320754717 0.0
1.0 0.132075471698 0.0
1.0 0.150943396226 0.0
1.0 0.169811320754 0.0
1.0 0.188679245283 0.0
1.0 0.207547169811 0.0
1.0 0.226415094339 0.0
1.0 0.245283018867 0.0
1.0 0.264150943396 0.0
1.0 0.283018867924 0.0
1.0 0.301886792452 0.0
1.0 0.32075471698 0.0
1.0 0.339622641509 0.0
1.0 0.358490566037 0.0
1.0 0.377358490565 0.0
1.0 0.396226415093 0.0
1.0 0.415094339622 0.0
1.0 0.43396226415 0.0
1.0 0.452830188678 0.0
1.0 0.471698113206 0.0
1.0 0.490566037735 0.0
1.0 0.509433962263 0.0
1.0 0.528301886791 0.0
1.0 0.54716981132 0.0
1.0 0.566037735848 0.0
1.0 0.584905660376 0.0
1.0 0.603773584905 0.0
1.0 0.622641509433 0.0
1.0 0.641509433961 0.0
1.0 0.66037735849 0.0
1.0 0.679245283018 0.0
1.0 0.698113207546 0.0
1.0 0.716981132075 0.0
1.0 0.735849056603 0.0
1.0 0.754716981131 0.0
1.0 0.77358490566 0.0
1.0 0.792452830188 0.0
1.0 0.811320754716 0.0
1.0 0.830188679245 0.0
1.0 0.849056603773 0.0
1.0 0.867924528302 0.0
1.0 0.88679245283 0.0
1.0 0.905660377358 0.0
1.0 0.924528301887 0.0
1.0 0.943396226415 0.0
1.0 0.962264150943 0.0
1.0 0.981132075472 0.0
0.981132075472 1.0 0.0
0.962264150943 1.0 0.0
0.943396226415 1.0 0.0
0.924528301886 1.0 0.0
0.905660377358 1.0 0.0
0.88679245283 1.0 0.0
0.867924528301 1.0 0.0
0.849056603773 1.0 0.0
0.830188679245 1.0 0.0
0.811320754717 1.0 0.0
0.792452830189 1.0 0.0
0.773584905661 1.0 0.0
0.754716981132 1.0 0.0
0.735849056604 1.0 0.0
0.716981132076 1.0 0.0
0.698113207548 1.0 0.0
0.67924528302 1.0 0.0
0.660377358492 1.0 0.0
0.641509433963 1.0 0.0
0.622641509435 1.0 0.0
0.603773584907 1.0 0.0
0.584905660379 1.0 0.0
0.566037735851 1.0 0.0
0.547169811323 1.0 0.0
0.528301886794 1.0 0.0
0.509433962266 1.0 0.0
0.490566037738 1.0 0.0
0.47169811321 1.0 0.0
0.452830188681 1.0 0.0
0.433962264153 1.0 0.0
0.415094339624 1.0 0.0
0.396226415096 1.0 0.0
0.377358490568 1.0 0.0
0.358490566039 1.0 0.0
0.339622641511 1.0 0.0
0.320754716982 1.0 0.0
0.301886792454 1.0 0.0
0.283018867926 1.0 0.0
0.264150943397 1.0 0.0
0.245283018869 1.0 0.0
0.226415094341 1.0 0.0
0.207547169812 1.0 0.0
0.188679245284 1.0 0.0
0.169811320755 1.0 0.0
0.150943396227 1.0 0.0
0.132075471699 1.0 0.0
0.11320754717 1.0 0.0
0.0943396226419 1.0 0.0
0.0754716981135 1.0 0.0
0.0566037735851 1.0 0.0
0.0377358490568 1.0 0.0
0.0188679245284 1.0 0.0
0.0 0.981132075472 0.0
0.0 0.962264150943 0.0
0.0 0.943396226415 0.0
0.0 0.924528301886 0.0
0.0 0.905660377358 0.0
0.0 0.88679245283 0.0
0.0 0.867924528301 0.0
0.0 0.849056603773 0.0
0.0 0.830188679245 0.0
0.0 0.811320754717 0.0
0.0 0.792452830189 0.0
0.0 0.773584905661 0.0
0.0 0.754716981132 0.0
0.0 0.735849056604 0.0
0.0 0.716981132076 0.0
0.0 0.698113207548 0.0
0.0 0.67924528302 0.0
0.0 0.660377358492 0.0
0.0 0.641509433963 0.0
0.0 0.622641509435 0.0
0.0 0.603773584907 0.0
0.0 0.584905660379 0.0
0.0 0.566037735851 0.0
0.0 0.547169811323 0.0
0.0 0.528301886794 0.0
0.0 0.509433962266 0.0
0.0 0.490566037738 0.0
0.0 0.47169811321 0.0
0.0 0.452830188681 0.0
0.0 0.433962264153 0.0
0.0 0.415094339624 0.0
0.0 0.396226415096 0.0
0.0 0.377358490568 0.0
0.0 0.358490566039 0.0
0.0 0.339622641511 0.0
0.0 0.320754716982 0.0
0.0 0.301886792454 0.0
0.0 0.283018867926 0.0
0.0 0.264150943397 0.0
0.0 0.245283018869 0.0
0.0 0.226415094341 0.0
0.0 0.207547169812 0.0
0.0 0.188679245284 0.0
0.0 0.169811320755 0.0
0.0 0.150943396227 0.0
0.0 0.132075471699 0.0
0.0 0.11320754717 0.0
0.0 0.0943396226419 0.0
0.0 0.0754716981135 0.0
0.0 0.0566037735851 0.0
0.0 0.0377358490568 0.0
0.0 0.0188679245284 0.0
0.499614224193 0.498429379407 0.0
0.709351150097 0.7067929365 0.0
0.292874827822 0.711049627861 0.0
0.706520851443 0.292113789303 0.0
0.291714656706 0.295145995725 0.0
0.50108835128 0.783530677659 0.0
0.216415973243 0.501287632284 0.0
0.782050525393 0.499492764799 0.0
0.496956341936 0.216638040715 0.0
0.82691920079 0.828701325203 0.0
0.171268297322 0.826873092284 0.0
0.82999415531 0.171806082629 0.0
0.171806159882 0.170006220725 0.0
0.564095931398 0.642022484091 0.0
0.360768033886 0.567166728801 0.0
0.641160245162 0.432018666938 0.0
0.435493508265 0.363787598618 0.0
0.641045418638 0.847983293712 0.0
0.151836831081 0.641082953981 0.0
0.847790705124 0.359824379018 0.0
0.359385799047 0.151307297843 0.0
0.849730592892 0.63994016831 0.0
0.361795226741 0.847445429145 0.0
0.643605144979 0.151894696582 0.0
0.15079737625 0.358878357699 0.0
0.683203958794 0.582361875162 0.0
0.445439677591 0.662738153176 0.0
0.334245940782 0.438587200602 0.0
0.577318984486 0.319581216093 0.0
0.53680821808 0.886986589667 0.0
0.113013419739 0.536808207216 0.0
0.886349712543 0.462786508001 0.0
0.462317985596 0.113735704842 0.0
0.735504344603 0.887829881185 0.0
0.112172462417 0.735504528969 0.0
0.887638611833 0.264645295862 0.0
0.264476757217 0.112187145739 0.0
0.891889368215 0.743031914675 0.0
0.737867682185 0.109387844712 0.0
0.261855423651 0.890746613505 0.0
0.109271399464 0.261888566049 0.0
0.603635685009 0.740958324468 0.0
0.259419739587 0.602478140036 0.0
0.747183528209 0.397011300681 0.0
0.396352955061 0.258562704153 0.0
0.597383583096 0.528212059173 0.0
0.526988047552 0.403243753849 0.0
0.90034405135 0.0973712693547 0.0
0.0973711684673 0.0996560187842 0.0
0.90277360243 0.900437974092 0.0
0.0996548624422 0.902629960055 0.0
0.383005484427 0.748487686257 0.0
0.250746727263 0.382805945938 0.0
0.903693419696 0.563434334186 0.0
0.436167023944 0.903809418558 0.0
0.563465014281 0.0962703876525 0.0
0.0961142817654 0.436228882441 0.0
0.738369190925 0.797753009061 0.0
0.202136080946 0.738186446138 0.0
0.796537972987 0.258334856888 0.0
0.258251769791 0.203438226497 0.0
0.80164962012 0.723205768339 0.0
0.277765548765 0.798564420228 0.0
0.723002546673 0.198884764236 0.0
0.2013425335 0.277841283084 0.0
0.48914355287 0.590958644415 0.0
0.411329823501 0.494836438872 0.0
0.755360406818 0.632316144066 0.0
0.632332640135 0.244634326145 0.0
0.355801657365 0.653516819696 0.0
0.694727299899 0.495532520272 0.0
0.346952717616 0.355201824129 0.0
0.493744733305 0.308279682104 0.0
0.818715453912 0.914886135401 0.0
0.0851138320819 0.818715414872 0.0
0.915032894073 0.181330254581 0.0
0.181284574253 0.0851129709589 0.0
0.818740398711 0.084203467426 0.0
0.915774671942 0.818637354227 0.0
0.0842034048389 0.18125955209 0.0
0.181260358343 0.915784735564 0.0
0.64917592945 0.658260589488 0.0
0.518075563239 0.700155561243 0.0
0.299494416094 0.518251910764 0.0
0.652957297626 0.352548424548 0.0
0.609740147387 0.921720843945 0.0
0.0782785060126 0.609739870844 0.0
0.921726727712 0.390254807157 0.0
0.390241213995 0.078258386904 0.0
0.925739857701 0.665706973484 0.0
0.665751643051 0.0751843226388 0.0
0.334186653093 0.924610901877 0.0
0.0754227079055 0.334224392528 0.0
0.822579801663 0.564412039019 0.0
0.435018945098 0.82722394802 0.0
0.564401572319 0.177432288844 0.0
0.172855269814 0.435178828684 0.0
0.566899251156 0.812632221934 0.0
0.187392450437 0.566981211541 0.0
0.818854580807 0.430928165352 0.0
0.434127151459 0.187459411815 0.0
0.452933372473 0.429430028959 0.0
0.776668646368 0.335191636573 0.0
0.328958215455 0.218416878215 0.0
0.667215104027 0.779659142148 0.0
0.222322082771 0.667507356294 0.0
0.574062070971 0.458174321203 0.0
0.679163752965 0.927322375846 0.0
0.0726773917106 0.679163925514 0.0
0.927320540294 0.320838544434 0.0
0.320835972499 0.0726772537713 0.0
0.751071533712 0.563035012605 0.0
0.562457423852 0.249317425578 0.0
0.424505417593 0.59786626329 0.0
0.447226711147 0.72999040724 0.0
0.266585186428 0.448991029837 0.0
0.614336791089 0.593773892136 0.0
0.590460189043 0.389185133289 0.0
0.391621140309 0.406897144586 0.0
0.556726759873 0.571620395639 0.0
0.454601356063 0.544173465099 0.0
0.492523498894 0.933850376263 0.0
0.0661493110254 0.492523858464 0.0
0.933860647753 0.50747107156 0.0
0.50746518707 0.0661277851549 0.0
0.491950031833 0.843650504872 0.0
0.156352367683 0.491951793851 0.0
0.841570246958 0.5052257633 0.0
0.502608999561 0.159774606894 0.0
0.699309295582 0.844264794909 0.0
0.155979051417 0.699250105553 0.0
0.843109729684 0.300492063844 0.0
0.300791139826 0.157123708306 0.0
0.837711704535 0.770028558295 0.0
0.230321604524 0.838867432932 0.0
0.769748236207 0.162659513286 0.0
0.162200446753 0.23016601657 0.0
0.324811346901 0.758790582929 0.0
0.240679479049 0.323887762939 0.0
0.353855105159 0.300603828516 0.0
0.940232607354 0.610562167619 0.0
0.610780372205 0.0590043180032 0.0
0.389608542872 0.940711586711 0.0
0.0592574748338 0.389601707762 0.0
0.294718439934 0.650159584036 0.0
0.740258010198 0.456260606731 0.0
0.435132050589 0.296697780436 0.0
0.940344198929 0.0586434030017 0.0
[...]
POINT_DATA 3798
VECTORS vector double
0.0 0.0 0.0
0.0 0.0 0.0
0.0 0.0 0.0
0.0 0.0 0.0
0.0 0.0 0.0
0.0 0.0 0.0
0.0 0.0 0.0
0.0 0.0 0.0
0.0 0.0 0.0
0.0 0.0 0.0
0.0 0.0 0.0
0.0 0.0 0.0
0.0 0.0 0.0
0.0 0.0 0.0
0.0 0.0 0.0
0.0 0.0 0.0
0.0 0.0 0.0
0.0 0.0 0.0
0.0 0.0 0.0
0.0 0.0 0.0
0.0 0.0 0.0
0.0 0.0 0.0
0.0 0.0 0.0
0.0 0.0 0.0
0.0 0.0 0.0
0.0 0.0 0.0
0.0 0.0 0.0
0.0 0.0 0.0
0.0 0.0 0.0
0.0 0.0 0.0
0.0 0.0 0.0
0.0 0.0 0.0
0.0 0.0 0.0
0.0 0.0 0.0
0.0 0.0 0.0
0.0 0.0 0.0
0.0 0.0 0.0
0.0 0.0 0.0
0.0 0.0 0.0
0.0 0.0 0.0
0.0 0.0 0.0
0.0 0.0 0.0
0.0 0.0 0.0
0.0 0.0 0.0
0.0 0.0 0.0
0.0 0.0 0.0
0.0 0.0 0.0
0.0 0.0 0.0
0.0 0.0 0.0
0.0 0.0 0.0
0.0 0.0 0.0
0.0 0.0 0.0
0.0 0.0 0.0
0.0 0.0 0.0
0.0 0.0 0.0
0.0 0.0 0.0
0.0 0.0 0.0
0.0 0.0 0.0
0.0 0.0 0.0
0.0 0.0 0.0
0.0 0.0 0.0
0.0 0.0 0.0
0.0 0.0 0.0
0.0 0.0 0.0
0.0 0.0 0.0
0.0 0.0 0.0
0.0 0.0 0.0
0.0 0.0 0.0
0.0 0.0 0.0
0.0 0.0 0.0
0.0 0.0 0.0
0.0 0.0 0.0
0.0 0.0 0.0
0.0 0.0 0.0
0.0 0.0 0.0
0.0 0.0 0.0
0.0 0.0 0.0
0.0 0.0 0.0
0.0 0.0 0.0
0.0 0.0 0.0
0.0 0.0 0.0
0.0 0.0 0.0
0.0 0.0 0.0
0.0 0.0 0.0
0.0 0.0 0.0
0.0 0.0 0.0
0.0 0.0 0.0
0.0 0.0 0.0
0.0 0.0 0.0
0.0 0.0 0.0
0.0 0.0 0.0
0.0 0.0 0.0
0.0 0.0 0.0
0.0 0.0 0.0
0.0 0.0 0.0
0.0 0.0 0.0
0.0 0.0 0.0
0.0 0.0 0.0
0.0 0.0 0.0
0.0 0.0 0.0
0.0 0.0 0.0
0.0 0.0 0.0
0.0 0.0 0.0
0.0 0.0 0.0
0.0 0.0 0.0
0.0 0.0 0.0
0.0 0.0 0.0
0.0 0.0 0.0
1.0 0.0 0.0
1.0 0.0 0.0
1.0 0.0 0.0
1.0 0.0 0.0
1.0 0.0 0.0
1.0 0.0 0.0
1.0 0.0 0.0
1.0 0.0 0.0
1.0 0.0 0.0
1.0 0.0 0.0
1.0 0.0 0.0
1.0 0.0 0.0
1.0 0.0 0.0
1.0 0.0 0.0
1.0 0.0 0.0
1.0 0.0 0.0
1.0 0.0 0.0
1.0 0.0 0.0
1.0 0.0 0.0
1.0 0.0 0.0
1.0 0.0 0.0
1.0 0.0 0.0
1.0 0.0 0.0
1.0 0.0 0.0
1.0 0.0 0.0
1.0 0.0 0.0
1.0 0.0 0.0
1.0 0.0 0.0
1.0 0.0 0.0
1.0 0.0 0.0
1.0 0.0 0.0
1.0 0.0 0.0
1.0 0.0 0.0
1.0 0.0 0.0
1.0 0.0 0.0
1.0 0.0 0.0
1.0 0.0 0.0
1.0 0.0 0.0
1.0 0.0 0.0
1.0 0.0 0.0
1.0 0.0 0.0
1.0 0.0 0.0
1.0 0.0 0.0
1.0 0.0 0.0
1.0 0.0 0.0
1.0 0.0 0.0
1.0 0.0 0.0
1.0 0.0 0.0
1.0 0.0 0.0
1.0 0.0 0.0
1.0 0.0 0.0
1.0 0.0 0.0
0.0 0.0 0.0
0.0 0.0 0.0
0.0 0.0 0.0
0.0 0.0 0.0
0.0 0.0 0.0
0.0 0.0 0.0
0.0 0.0 0.0
0.0 0.0 0.0
0.0 0.0 0.0
0.0 0.0 0.0
0.0 0.0 0.0
0.0 0.0 0.0
0.0 0.0 0.0
0.0 0.0 0.0
0.0 0.0 0.0
0.0 0.0 0.0
0.0 0.0 0.0
0.0 0.0 0.0
0.0 0.0 0.0
0.0 0.0 0.0
0.0 0.0 0.0
0.0 0.0 0.0
0.0 0.0 0.0
0.0 0.0 0.0
0.0 0.0 0.0
0.0 0.0 0.0
0.0 0.0 0.0
0.0 0.0 0.0
0.0 0.0 0.0
0.0 0.0 0.0
0.0 0.0 0.0
0.0 0.0 0.0
0.0 0.0 0.0
0.0 0.0 0.0
0.0 0.0 0.0
0.0 0.0 0.0
0.0 0.0 0.0
0.0 0.0 0.0
0.0 0.0 0.0
0.0 0.0 0.0
0.0 0.0 0.0
0.0 0.0 0.0
0.0 0.0 0.0
0.0 0.0 0.0
0.0 0.0 0.0
0.0 0.0 0.0
0.0 0.0 0.0
0.0 0.0 0.0
0.0 0.0 0.0
0.0 0.0 0.0
0.0 0.0 0.0
0.0 0.0 0.0
-0.24391411061 0.0975342910932 0.0
-0.0193668937883 -0.0967084173057 0.0
-0.021495821869 0.197245837185 0.0
-0.0836362062764 -0.0520720372023 0.0
-0.063408780834 0.0343452111753 0.0
0.111818452944 0.132905035404 0.0
-0.0584335531519 0.120081144867 0.0
-0.274646699449 -0.251929163341 0.0
-0.0652251883763 -0.0110604463846 0.0
0.0837435255237 -0.186543447865 0.0
-0.0327011169791 0.164985832946 0.0
0.000905554996103 -0.000831563237391 0.0
-0.018992059106 0.013925630171 0.0
-0.0932205198725 0.0813126837565 0.0
-0.120388958575 0.185840536921 0.0
-0.279596596792 -0.0803211352011 0.0
-0.150569742605 0.0380957710346 0.0
0.229532157866 0.0252456887722 0.0
-0.0248230257101 0.153021970011 0.0
-0.0522904801753 -0.0565832887672 0.0
-0.0376231561684 0.00378956547729 0.0
-0.212330902483 -0.421587061311 0.0
0.0774449001192 0.130936592595 0.0
-0.019785731246 -0.0133584922662 0.0
-0.0313447477028 0.0584235582577 0.0
-0.230628197869 -0.114922256277 0.0
-0.0480927783646 0.197409860198 0.0
-0.122424019618 0.0989686140644 0.0
-0.149634091922 -0.0300543189489 0.0
0.26278085197 0.0602248868358 0.0
-0.0205333684514 0.10944047737 0.0
-0.0769655126055 -0.130366998947 0.0
-0.0285818886623 -0.00331798024121 0.0
0.300747138693 -0.0225131524191 0.0
-0.0152395257285 0.153930605922 0.0
-0.00413163337206 -0.000412162552095 0.0
-0.0218310416187 0.00513125785637 0.0
-0.124350204992 -0.509298399995 0.0
0.00122509588577 -0.00402142839653 0.0
0.0291660796882 0.109070105341 0.0
-0.0144448661556 0.0278592042442 0.0
0.0737938232434 0.0437191822928 0.0
-0.0604047152086 0.174117570559 0.0
-0.176403792999 -0.130036876625 0.0
-0.0770184429813 0.0106823199364 0.0
-0.27759690265 0.0026902851621 0.0
-0.234986682553 0.0186979271269 0.0
0.00340137331707 0.00321664199093 0.0
-0.00417163680992 0.00355548942341 0.0
0.133676266212 -0.290083031972 0.0
-0.0755305739875 0.171784409815 0.0
0.0278082392262 0.194625590737 0.0
-0.069245413743 0.0686783875461 0.0
-0.120001254999 -0.273807746768 0.0
0.226266679743 0.0704601206318 0.0
-0.0159385181635 -0.005825069841 0.0
-0.0176468577261 0.0719440932642 0.0
0.11099138162 -0.0744414786628 0.0
-0.0207907491316 0.177500419134 0.0
-0.0241408126452 -0.0218747053124 0.0
-0.037780068339 0.017065206735 0.0
-0.0646567730229 -0.245541624898 0.0
0.00452986103031 0.168765707975 0.0
-0.0202786812288 -0.0182601346329 0.0
-0.0379486962458 0.0356929468737 0.0
-0.154421466399 0.155747754229 0.0
-0.180957367988 0.138711047064 0.0
-0.178685752172 -0.221493343414 0.0
-0.069335074115 -0.0313089245162 0.0
-0.0563256454267 0.211926428782 0.0
-0.317069489781 -0.151370871613 0.0
-0.104127992546 0.0509815127179 0.0
-0.128585070044 -0.00157237877249 0.0
0.354158850307 -0.0716362896743 0.0
-0.0277490341197 0.154644322122 0.0
0.00167646385365 0.00646543869966 0.0
-0.0104529307394 0.00376041543676 0.0
0.00509949103726 0.000603920359396 0.0
-0.0664677196195 -0.548295565982 0.0
-0.00686475197349 0.0114140765901 0.0
-0.00500297885635 0.116903822228 0.0
-0.0861747511441 -0.0347213057837 0.0
0.00831941380024 0.138240413563 0.0
-0.09930031494 0.146479872365 0.0
-0.187859271088 -0.0679157030922 0.0
0.419933050199 0.0225001502577 0.0
-0.00983813910629 0.107563326485 0.0
-0.0158551851927 -0.0226920118808 0.0
-0.0197741957143 -4.56722430459e-06 0.0
-0.113893455848 -0.425434341785 0.0
-0.00270091998024 -0.00354459990774 0.0
0.192284663079 0.0631431024376 0.0
-0.00996958764351 0.0375225118035 0.0
-0.253775896943 -0.347696678961 0.0
0.114672860663 0.13580937128 0.0
-0.0405017122124 -0.0144663028653 0.0
-0.0418364419714 0.0876470972659 0.0
0.172548775892 0.0769415378851 0.0
-0.0425162824034 0.141993710332 0.0
-0.144691977209 -0.153136464148 0.0
-0.0519873154679 -0.00232898505343 0.0
-0.208747135139 0.0757585843911 0.0
-0.085527924548 -0.0700319369711 0.0
-0.0526765023727 0.0135395516766 0.0
0.120933636963 -0.0133075300979 0.0
-0.0346072816966 0.178337167641 0.0
-0.296637376898 0.00154348190725 0.0
0.466729962801 0.00501902447518 0.0
-0.00700822047699 0.115384457215 0.0
-0.00447042673417 0.00018125068868 0.0
-0.0168835400768 0.00151747672861 0.0
-0.281649403241 -0.242370257395 0.0
-0.083017703039 -0.0232833344228 0.0
-0.122219265743 0.194923810157 0.0
0.0305947886945 0.184429590856 0.0
-0.0803219132516 0.100649282867 0.0
-0.194880564256 -0.0012735406384 0.0
-0.247232030738 -0.0330741416993 0.0
-0.150252635669 0.0747097228181 0.0
-0.206177520038 0.0739338250786 0.0
-0.190619959992 0.15774391985 0.0
0.399437370273 0.0316026499711 0.0
-0.00928705232997 0.0722792707578 0.0
-0.0368977535358 -0.104219030766 0.0
-0.0133874597182 -0.00225285177361 0.0
0.161067102546 0.105693247136 0.0
-0.0347556588573 0.106532341019 0.0
-0.194575526993 -0.261123690296 0.0
-0.0402448451061 -0.00854591343042 0.0
0.212163128564 -0.0141650938005 0.0
-0.020790744082 0.16501500098 0.0
-0.0248793495007 -0.023741304388 0.0
-0.0343998409392 0.00824415702852 0.0
-0.0323145512339 -0.291416742482 0.0
-0.0140260772961 0.152192751168 0.0
-0.00324926806157 -0.00690853959486 0.0
-0.0235567126299 0.0244911211554 0.0
0.0100439570103 0.189049384351 0.0
-0.0558459379274 0.0470726623944 0.0
-0.0814589194752 0.0276072788765 0.0
-0.0635047373668 -0.248344619332 0.0
-0.00452028292106 -0.0026086234222 0.0
0.343444590134 0.0374568132287 0.0
-0.00760084593831 0.0439308172364 0.0
-0.0515261327258 0.197722394548 0.0
-0.277027290055 -0.18512733528 0.0
-0.108537861078 0.0119369227082 0.0
0.00149656208105 0.00135533996442 0.0
-0.000616033689855 0.000615661925927 0.0
0.157909811063 -0.295304603777 0.0
-0.0860886824169 0.204652504219 0.0
0.489704075752 0.0210929169066 0.0
-0.00657747041646 0.0801393975089 0.0
-0.0154653250578 -0.035934470518 0.0
-0.0143415301389 -0.00091645635561 0.0
0.537034741721 -0.0150622448658 0.0
-0.00671769614376 0.114225390173 0.0
0.000722625034574 0.00751523690901 0.0
-0.00984550138766 0.0016746264523 0.0
-0.0870458057088 -0.549803527083 0.0
0.00499248162913 -0.000568678006251 0.0
0.171125568377 0.0649065328992 0.0
-0.00446191127568 0.0145664146473 0.0
0.170470060485 -0.0795811547741 0.0
-0.0236889456775 0.170330515144 0.0
-0.00419351509577 -0.00381560931343 0.0
-0.0249585219151 0.010949612854 0.0
-0.155263766324 -0.41606128233 0.0
0.0393545877409 0.133901798344 0.0
-0.0109174940354 -0.0114543716042 0.0
-0.0268997909227 0.0418216987936 0.0
0.0823761478171 0.106359236312 0.0
-0.0730526106741 0.149364180332 0.0
-0.148321578554 -0.0834400070929 0.0
-0.0867342869173 0.145107760232 0.0
-0.137181050243 0.150485677948 0.0
0.0114776610123 -0.0205134773651 0.0
-0.119837521468 -0.114714816389 0.0
-0.115735062981 -0.050516451311 0.0
0.00609533870453 0.0822228721745 0.0
-0.0879779330789 0.173453327097 0.0
-0.235457007637 -0.105200899205 0.0
-0.290650338307 -0.0778329900624 0.0
-0.186076529761 -0.00714001764754 0.0
0.468481029076 -0.0758191155755 0.0
-0.030825832372 0.146453596547 0.0
0.00124297460231 0.00471783232651 0.0
-0.00370008261003 0.00136197780813 0.0
0.00397053033987 0.00114855424297 0.0
-0.0545735681472 -0.596735869985 0.0
-0.00209052084911 0.00391392715611 0.0
0.0343687179362 0.102119630008 0.0
-0.0157691554303 0.208031960608 0.0
-0.0944550732066 0.0715509803789 0.0
-0.0805871997622 -0.00218581928577 0.0
0.258308907058 0.0511742559984 0.0
-0.0229799943793 0.130515291976 0.0
-0.0620450895698 -0.0848047704335 0.0
-0.0335136666543 -0.00102817437043 0.0
0.0147155450832 -0.128445163053 0.0
-0.0142659016403 0.183853108643 0.0
-0.0385242021329 -0.0300497691075 0.0
-0.0459684149779 0.0274962299082 0.0
-0.0870744338524 -0.183450764686 0.0
-0.0533725194708 -0.0329446309393 0.0
0.158223185751 0.0377998585312 0.0
-0.0414127914522 0.162868702493 0.0
-0.11180387876 -0.106366986268 0.0
-0.0549965704669 0.00486264491135 0.0
-0.0760172066833 -0.440043000817 0.0
0.00238108576321 -0.00124873750554 0.0
0.288675102196 0.0400315585801 0.0
-0.00455630226555 0.0212780007247 0.0
0.158764085348 -0.194141639395 0.0
-0.0486156284299 0.1686330056 0.0
0.00346694856354 0.00377263379245 0.0
-0.0111068568686 0.00794499780629 0.0
0.0679152298207 0.164220292589 0.0
-0.0499047648431 0.070786572034 0.0
-0.315509198043 -0.0639654255991 0.0
-0.17353247667 0.0250634693015 0.0
-0.0118726849487 0.207856034523 0.0
0.0587498949087 -0.143520231736 0.0
-0.022004719959 0.172504102523 0.0
-0.00947967696236 -0.0110586182516 0.0
-0.0306919331653 0.0202661129012 0.0
-0.0774742619865 0.0523126885847 0.0
-0.170165801636 -0.394591899312 0.0
0.14902154621 0.0902299604173 0.0
-0.0147302608415 -0.00782048268342 0.0
-0.0202995069124 0.0624531263531 0.0
-0.240740585297 -0.339298905112 0.0
-0.0400244349227 -0.0200617146466 0.0
-0.254102568536 0.0641201662124 0.0
-0.266845325158 0.054532390783 0.0
-0.11013494063 0.0309474861971 0.0
-0.15949131756 -0.306396874066 0.0
-0.0309198126817 -0.0211696832921 0.0
0.0329771278903 0.161917030366 0.0
-0.0403448658023 0.0496261879187 0.0
-0.156226870644 0.172745388666 0.0
-0.0274207719356 -0.110429631387 0.0
-0.00652550911124 -0.00150996215763 0.0
0.512113581727 0.0223293864177 0.0
-0.00451776605526 0.0445061793353 0.0
-0.081707975538 0.197540510192 0.0
-0.286810658782 -0.136499460559 0.0
-0.0248918231258 -0.360113798783 0.0
-0.0303916377977 0.143081339766 0.0
0.00297891291314 -0.00109304206717 0.0
-0.0143156634112 0.016977202754 0.0
0.2367841181 0.0753052277827 0.0
-0.0203400763774 0.0915929319799 0.0
-0.109008205118 -0.202643447486 0.0
-0.02417901536 -0.00514793477736 0.0
-0.215974170418 0.113508203778 0.0
0.0686150154236 0.169628739988 0.0
-0.063700700767 0.0907893785369 0.0
0.291994521475 0.00641220848884 0.0
-0.0164879301947 0.147803809619 0.0
-0.0167677985834 -0.0167865844821 0.0
-0.0278652726661 0.00379046350022 0.0
-0.216173686702 0.115919035527 0.0
0.617832852123 -0.000931415881614 0.0
-0.00294433403963 0.0912005461154 0.0
-0.000274773085495 0.00673908134573 0.0
-0.0098977484351 0.00105680055449 0.0
-0.155373602228 0.113522954881 0.0
0.61490442998 0.00130542399728 0.0
-0.00435145863825 0.0794283542125 0.0
-0.00234805064835 0.00101571419997 0.0
-0.0121835888708 6.09521551621e-05 0.0
-0.297880156809 -0.165684795146 0.0
-0.117146169516 -0.0193774748921 0.0
-0.0691202831425 0.211684337181 0.0
-0.0959140762305 0.187994535827 0.0
-0.21957796032 -0.170480290412 0.0
-0.106295000237 -0.0343455154467 0.0
0.209224839883 -0.0994885937388 0.0
-0.0314601001368 0.167070569384 0.0
0.0012072411671 0.00312384133108 0.0
-0.0167575485693 0.00771208089959 0.0
0.0634646162182 -0.059476125874 0.0
-0.0273899742705 0.187781037414 0.0
-0.0662229808772 -0.0497040949688 0.0
-0.0518319802844 0.0221232206991 0.0
0.0264214123008 -0.358385511315 0.0
0.00421241423272 0.00208413750431 0.0
-0.0565436169223 0.149331931353 0.0
-0.0079768824814 0.00867516830616 0.0
-0.0539650051071 0.0305171185265 0.0
-0.308163568549 -0.218586524558 0.0
-0.0908320860166 -0.012464393669 0.0
-0.212742611764 -0.174350277591 0.0
-0.114962991486 0.0760796754234 0.0
-0.281811658423 -0.29579338412 0.0
-0.0585021443812 -0.0163621804864 0.0
-0.0956023822627 0.20334354576 0.0
-0.145331940865 0.114757806869 0.0
0.0531526027269 0.152770342652 0.0
-0.005680310624 0.182034539801 0.0
-0.0777884456478 0.125124929522 0.0
-0.10129527404 0.118073631575 0.0
-0.17302484025 -0.0582283789157 0.0
-0.234637210728 -0.070441950502 0.0
-0.182825285252 -0.0490653676286 0.0
0.616633895142 -0.0240178851412 0.0
-0.00871853320044 0.102112371516 0.0
0.000837650307562 0.00613313299948 0.0
-0.00490206454488 0.00091408408389 0.0
0.0045298041664 0.000199900765467 0.0
-0.0619051741557 -0.550523525168 0.0
-0.00167100604161 0.00698635443506 0.0
0.245098673775 0.0547534808304 0.0
0.126124231324 0.0697737817778 0.0
-0.0510812778691 0.155035518184 0.0
-0.0372196740994 -0.224857620577 0.0
-0.000819406792582 -0.00115926939886 0.0
0.475943384621 0.018507526891 0.0
-0.00356067057806 0.026891114712 0.0
0.206822329208 0.0848124567563 0.0
-0.0347468935098 0.121920380564 0.0
-0.155130927032 -0.190710533813 0.0
-0.0402270965774 -0.00534151054519 0.0
0.683534188135 0.00981795957489 0.0
-0.00251789414278 0.0590255169766 0.0
-0.00362873955773 -0.00424355272238 0.0
-0.00922382002485 -0.000109104019678 0.0
-0.155181764315 -0.511957316653 0.0
-0.0113153643086 -0.00842192130026 0.0
0.0755458851146 0.111383131476 0.0
-0.022772448079 0.0490132455375 0.0
0.165128837131 0.10135556349 0.0
-0.179643224898 -0.314046237434 0.0
-0.0287369618783 0.0866374017355 0.0
-0.0272082678494 -0.00888551995009 0.0
-0.225453532277 -0.398556468707 0.0
0.110507005499 0.126101550455 0.0
-0.0254881053507 -0.0127693215645 0.0
-0.0337198189362 0.0721442463238 0.0
-0.0461417582937 0.186451207105 0.0
-0.0674354341838 0.015981510837 0.0
-0.104354883078 -0.545382035032 0.0
0.00304336061379 -0.00130424146311 0.0
0.0153191142615 0.107158946666 0.0
-0.00950064888498 0.0185150945522 0.0
-0.138092206379 0.0149748090879 0.0
0.323545420827 -0.0530311429725 0.0
-0.0201004977523 0.154984010355 0.0
0.000895714351552 0.00562307250135 0.0
-0.014956739705 0.00461430949979 0.0
-0.184549257008 0.105393518819 0.0
-0.273654199043 -0.0318655883364 0.0
-0.125393331823 0.0535161690715 0.0
0.305926064356 0.0295468971206 0.0
-0.0161655243061 0.133679208963 0.0
-0.0278063071173 -0.0367996241877 0.0
-0.0285745439465 0.00124783260727 0.0
0.00100321104648 0.00229782507347 0.0
-0.00104543670962 0.000597506659567 0.0
0.425362928559 -0.121034660792 0.0
0.00225828520997 0.000800053586366 0.0
-0.0510965010594 0.176927087084 0.0
-0.0357140294155 -0.595985321299 0.0
-0.00067281344775 0.00113749667643 0.0
0.0792553574085 0.0991928995339 0.0
-0.063963918363 0.000955339624673 0.0
-0.0526675212865 -0.0511376786392 0.0
-0.0430142917456 0.00823550002944 0.0
0.142954816751 0.101361148149 0.0
-0.057581345009 0.138235469472 0.0
-0.0398095798931 0.116121660181 0.0
-0.116400700476 0.165646882395 0.0
-0.188229953034 -0.462378820101 0.0
-0.00295085413549 -0.00519747264495 0.0
0.0854168644288 0.0913565616514 0.0
-0.0148609436462 0.0374723132193 0.0
0.175841222247 -0.00181697510315 0.0
-0.0277361137831 0.169066187057 0.0
-0.138629501946 -0.0649436106223 0.0
-0.0876170675125 0.0411432982149 0.0
-0.173699312307 0.0644632520923 0.0
0.339248533639 0.0389220463133 0.0
-0.0145369837534 0.109381331337 0.0
-0.0359624938492 -0.060811856344 0.0
-0.0238649957773 -0.00148180117638 0.0
0.133416598125 0.135841254607 0.0
-0.0520194787137 0.104530501099 0.0
-0.274471640692 -0.0018928682994 0.0
-0.0484650036985 -0.0625029502647 0.0
-0.0594970158175 -0.00534741657124 0.0
-0.206814409126 -0.215637646738 0.0
-0.163743003756 0.0531618848872 0.0
0.00287723620163 0.0264299092632 0.0
-0.209486290158 0.0421707807203 0.0
0.0852016932013 0.00705275312408 0.0
-0.138301606662 -0.097322620979 0.0
-0.0363328588463 0.204561834783 0.0
-0.120186592927 -0.00345989981993 0.0
0.203489809562 0.0507364890345 0.0
-0.0338170828912 0.148466654927 0.0
-0.0940488107218 -0.107188220142 0.0
-0.0442371507794 0.00123257356966 0.0
-0.0693652417914 0.185145980867 0.0
-0.262728008118 -0.14052948074 0.0
0.035488614197 0.184393430458 0.0
-0.0553586914875 0.0599423788338 0.0
-0.240733661669 -0.273375089918 0.0
-0.0631546728159 -0.0253028183715 0.0
0.67573848726 0.0158787605706 0.0
-0.0016371322239 0.0470755489601 0.0
-0.00655613127351 -0.0219834983087 0.0
-0.00710870814298 -0.000313578951182 0.0
-0.0464578465654 -0.0406784383999 0.0
-0.0448408258065 0.0139501993462 0.0
-0.155376175159 0.175395559011 0.0
0.134172368304 -0.0353412871105 0.0
-0.0254464793522 0.176593848522 0.0
-0.229333630392 0.023584670266 0.0
-0.268796303176 0.0426677294359 0.0
-0.303163492614 -0.0136263154392 0.0
-0.0936416172811 0.0162447653706 0.0
-0.097115690198 0.0924335771961 0.0
-0.245585678431 -0.0577815275463 0.0
-0.227365513247 -0.00684629487564 0.0
0.00362215112758 -0.178136416326 0.0
-0.00894398802565 0.174249785194 0.0
-0.0184977788141 -0.0173611336729 0.0
-0.0377921287637 0.0282337325396 0.0
-0.0949761851784 -0.328963943608 0.0
0.00788019952709 0.148670127328 0.0
-0.0101761637107 -0.0116079249575 0.0
-0.0278121287636 0.034417553359 0.0
-0.106852686172 0.000275671853039 0.0
0.215647316585 -0.0355727937493 0.0
-0.0191901395105 0.166439785379 0.0
-0.0109252804878 -0.00902272508208 0.0
-0.0283281256149 0.00875849404109 0.0
0.351611887918 -0.0032894299459 0.0
-0.0117548073277 0.141489542179 0.0
-0.00707133655338 -0.00283604196318 0.0
-0.0216237735558 0.00336895270547 0.0
0.0852807771454 0.161737585628 0.0
-0.0707839271727 0.107124464066 0.0
-0.0650304690219 0.0241933162514 0.0
-0.167643589303 -0.110624531316 0.0
-0.145634233229 -0.0440395985568 0.0
-0.0566899415516 0.175741214061 0.0
-0.129244245787 0.126961204778 0.0
0.70268954553 -0.000150409510877 0.0
-0.00186823240599 0.0699121433998 0.0
-0.000420367379308 0.00582288008724 0.0
-0.00822061280762 0.000364191877914 0.0
-0.0342640569178 0.192138010334 0.0
-0.130992409923 0.191389278017 0.0
-0.0292715178163 -0.218154449601 0.0
0.00120022054326 -0.000524033290103 0.0
0.546710934041 0.0212987864245 0.0
-0.00163488365947 0.0177899100788 0.0
0.412310534301 0.0167769394731 0.0
-0.00965592158712 0.117171483481 0.0
-0.0110499744554 -0.0119647717127 0.0
-0.0205699697481 0.000971816166297 0.0
-0.00113986372863 0.197417426084 0.0
0.022673468937 0.196574413671 0.0
-0.00539940741964 0.189816381335 0.0
-0.0537509247809 0.0375688744535 0.0
-0.253598848217 0.048851233469 0.0
0.2989535443 -0.127782861238 0.0
-0.0435658155667 0.166888028551 0.0
0.00264765663477 0.00539691022074 0.0
-0.00724948216555 0.00378681447336 0.0
0.363076342111 0.0427701467487 0.0
-0.0128039387283 0.0898915791664 0.0