# vtk DataFile Version 2.0
2D Simulation Python
ASCII
DATASET UNSTRUCTURED_GRID
FIELD FieldData 1
NODES 1 2 int
525 968

POINTS 525 double
0.0 0.0 0.0
1.0 0.0 0.0
1.0 1.0 0.0
0.0 1.0 0.0
0.04999999999989927 0.0 0.0
0.09999999999981467 0.0 0.0
0.1499999999997036 0.0 0.0
0.1999999999995579 0.0 0.0
0.2499999999994121 0.0 0.0
0.2999999999992664 0.0 0.0
0.3499999999991207 0.0 0.0
0.3999999999989749 0.0 0.0
0.4499999999988346 0.0 0.0
0.4999999999986943 0.0 0.0
0.5499999999988205 0.0 0.0
0.5999999999989468 0.0 0.0
0.6499999999990784 0.0 0.0
0.69999999999921 0.0 0.0
0.7499999999993416 0.0 0.0
0.7999999999994734 0.0 0.0
0.8499999999996051 0.0 0.0
0.8999999999997368 0.0 0.0
0.9499999999998684 0.0 0.0
1.0 0.04999999999989927 0.0
1.0 0.09999999999981467 0.0
1.0 0.1499999999997036 0.0
1.0 0.1999999999995579 0.0
1.0 0.2499999999994121 0.0
1.0 0.2999999999992664 0.0
1.0 0.3499999999991207 0.0
1.0 0.3999999999989749 0.0
1.0 0.4499999999988346 0.0
1.0 0.4999999999986943 0.0
1.0 0.5499999999988205 0.0
1.0 0.5999999999989468 0.0
1.0 0.6499999999990784 0.0
1.0 0.69999999999921 0.0
1.0 0.7499999999993416 0.0
1.0 0.7999999999994734 0.0
1.0 0.8499999999996051 0.0
1.0 0.8999999999997368 0.0
1.0 0.9499999999998684 0.0
0.9499999999998356 1.0 0.0
0.8999999999995836 1.0 0.0
0.8499999999998515 1.0 0.0
0.7999999999999998 1.0 0.0
0.7500000000003858 1.0 0.0
0.7000000000006934 1.0 0.0
0.6500000000010593 1.0 0.0
0.6000000000013869 1.0 0.0
0.5500000000016854 1.0 0.0
0.5000000000020587 1.0 0.0
0.4500000000018616 1.0 0.0
0.4000000000016644 1.0 0.0
0.3500000000014563 1.0 0.0
0.3000000000012483 1.0 0.0
0.2500000000010403 1.0 0.0
0.2000000000008322 1.0 0.0
0.1500000000006241 1.0 0.0
0.100000000000416 1.0 0.0
0.05000000000020799 1.0 0.0
0.0 0.9499999999998356 0.0
0.0 0.8999999999995836 0.0
0.0 0.8499999999998515 0.0
0.0 0.7999999999999998 0.0
0.0 0.7500000000003858 0.0
0.0 0.7000000000006934 0.0
0.0 0.6500000000010593 0.0
0.0 0.6000000000013869 0.0
0.0 0.5500000000016854 0.0
0.0 0.5000000000020587 0.0
0.0 0.4500000000018616 0.0
0.0 0.4000000000016644 0.0
0.0 0.3500000000014563 0.0
0.0 0.3000000000012483 0.0
0.0 0.2500000000010403 0.0
0.0 0.2000000000008322 0.0
0.0 0.1500000000006241 0.0
0.0 0.100000000000416 0.0
0.0 0.05000000000020799 0.0
0.5002485654567741 0.4978772509747641 0.0
0.7033187041193399 0.7014668121912166 0.0
0.2947960274694471 0.7059791390227896 0.0
0.7019765109347386 0.2973854003694347 0.0
0.29568388693037473 0.29424415290997646 0.0
0.49233715615511175 0.7875062963121555 0.0
0.21375508669212986 0.49376182953819303 0.0
0.7917969051207083 0.5071399528090823 0.0
0.5066744650542507 0.2082902354008019 0.0
0.8301472757759408 0.8303350380720145 0.0
0.1695649435653026 0.8302937057890079 0.0
0.8303544566820256 0.1698383369554692 0.0
0.1698440829834122 0.16958673903258378 0.0
0.6406859058298959 0.8535043638144211 0.0
0.1466715863273007 0.6415001294307532 0.0
0.35970150044160865 0.8470180655286812 0.0
0.8473562633002956 0.6400539409957725 0.0
0.8539200894249043 0.3592703585911031 0.0
0.15344966000070004 0.35998353861307664 0.0
0.3591361910627438 0.1457484932820563 0.0
0.6400209064720704 0.1527494243357445 0.0
0.5634894531302499 0.6411949810083936 0.0
0.3700022571702113 0.5831835692540683 0.0
0.6501699690136025 0.4584683482201004 0.0
0.43424867995219774 0.34769178151787783 0.0
0.4199911580160415 0.6535423165578038 0.0
0.6671603730398319 0.5472651882756712 0.0
0.3675828474198274 0.42185120587590474 0.0
0.5353787809342496 0.34899369879448094 0.0
0.45821216700928885 0.8942942904000355 0.0
0.10613438110100798 0.4586944207390949 0.0
0.8948333423245344 0.5417876920543356 0.0
0.5417861419406251 0.10515136575731818 0.0
0.7393236485079606 0.9037718626688892 0.0
0.09619807665257585 0.739522864027752 0.0
0.9038134296350593 0.2606591099195664 0.0
0.2606422228445461 0.09612639967547133 0.0
0.902249338511766 0.7378917011195344 0.0
0.26205394903235185 0.9022558197031812 0.0
0.7378943832597143 0.09774709608275281 0.0
0.09784461968938842 0.26211332432437484 0.0
0.6041869220757199 0.7438331107420559 0.0
0.2555547941938021 0.6073965256207687 0.0
0.747191348542144 0.3968231506991955 0.0
0.3942946628459214 0.25015269940931384 0.0
0.39063865768876654 0.7448167942665088 0.0
0.7468893108044187 0.6052240746426186 0.0
0.2583897488809709 0.39165480421915405 0.0
0.6041726979348193 0.25513500159217406 0.0
0.9140896928828459 0.9141268912093611 0.0
0.08586255538009324 0.9141003181657481 0.0
0.9141278455085173 0.08590935601475548 0.0
0.08591215420033912 0.08586955734573642 0.0
0.5657955326148328 0.9195307524479092 0.0
0.08082055294368601 0.5662303209510793 0.0
0.9196745799035446 0.4341933697829012 0.0
0.4341919187772185 0.0802897940155829 0.0
0.7920368948724936 0.7198463639424368 0.0
0.279414907590983 0.7924561192985627 0.0
0.7198383944872657 0.20804253715396287 0.0
0.20812008213323627 0.2795840826698177 0.0
0.7196526078485981 0.792928792537984 0.0
0.20652278030119622 0.7205991564674166 0.0
0.7932161075990305 0.28035136546983946 0.0
0.28000424614856084 0.20609097594581471 0.0
0.4795404988560692 0.5875387314300778 0.0
0.5810760187199975 0.541961773175441 0.0
0.412758214498036 0.5031718771084444 0.0
0.5622793578713229 0.43498904906636326 0.0
0.6452756399670023 0.632582260551598 0.0
0.34669871486632975 0.6583853703329643 0.0
0.6353551520223354 0.36056868145475124 0.0
0.3477537576246628 0.3437494875399043 0.0
0.6500376376900954 0.9344142896931137 0.0
0.06570023002672935 0.6502426663379111 0.0
0.9344495619886847 0.34995522315069466 0.0
0.34995202340387194 0.06552669505030043 0.0
0.9287479364807032 0.6437780238389056 0.0
0.6437793996849174 0.0712506588328565 0.0
0.35620520487883006 0.9286698456832501 0.0
0.07144780666726668 0.3563382889385904 0.0
0.8342996705031208 0.9277299114197415 0.0
0.07225192086227997 0.8343309756610068 0.0
0.9277328044459978 0.16569814584925438 0.0
0.16569961781206471 0.0722598820779933 0.0
0.9273666001122272 0.8340419609063143 0.0
0.8340432393877059 0.07263164936881608 0.0
0.165943336803982 0.9273771823778921 0.0
0.07264523194988452 0.16595463610696498 0.0
0.4958280319952849 0.6940735067170413 0.0
0.31004381375827395 0.5016000945630474 0.0
0.7182917152159116 0.5002403327530721 0.0
0.4957200526353339 0.2834663204359723 0.0
0.5536697608473748 0.8388075226053253 0.0
0.16183434000939306 0.5547809153535551 0.0
0.8399250223302724 0.4462994244247459 0.0
0.4461862203993219 0.15982212962800135 0.0
0.4262363138093469 0.8178231001598644 0.0
0.1829629278874066 0.42681034411551655 0.0
0.8192171374927334 0.5734103338627005 0.0
0.5733626998256578 0.18093197192725624 0.0
0.467468071118123 0.4253905240841927 0.0
0.5008632097039201 0.38775576596893857 0.0
0.5501057054513525 0.39033220847933736 0.0
0.5158153414404761 0.42774428243499124 0.0
0.9583169763364077 0.09057278427743684 0.0
0.9555477371344725 0.04446104094144228 0.0
0.09057358737104171 0.0416818789562244 0.0
0.04446170761434975 0.0444518716589729 0.0
0.9094269443701651 0.9583166599276147 0.0
0.9555388279581305 0.955547607537806 0.0
0.04167843119920192 0.909431697474023 0.0
0.04444986817926587 0.9555409937729817 0.0
0.9093995780409581 0.04174449833652589 0.0
0.04174648824231278 0.09059987282134199 0.0
0.9582552254550182 0.9093993524696691 0.0
0.09059670414635093 0.9582585182696453 0.0
0.48429970064084243 0.34959618392329606 0.0
0.45083059739845444 0.38702823409607634 0.0
0.453917717644742 0.6721289692306383 0.0
0.4489436759581884 0.7192906845812077 0.0
0.4109994070081297 0.693091663819197 0.0
0.6932211123141774 0.5247409364220479 0.0
0.730258714142838 0.5451630346282524 0.0
0.6998535043858614 0.5735720550458454 0.0
0.3365282329012792 0.45937222732600436 0.0
0.2852588636803336 0.45148338028807383 0.0
0.315837541706303 0.41252953984267415 0.0
0.5167011003454103 0.31257086371064446 0.0
0.5424776760007306 0.27253347371329745 0.0
0.5694299316854414 0.3067358181133547 0.0
0.391091283353437 0.5433052128952505 0.0
0.44326521342978953 0.5434144369548268 0.0
0.4227385419137879 0.58303600557236 0.0
0.4463083752952298 0.625105927744345 0.0
0.39968436252362094 0.6194374464697661 0.0
0.6149177621524187 0.4965553428671899 0.0
0.5719858872137963 0.48455202691233024 0.0
0.6068754813330857 0.4457633928414799 0.0
0.656318021014764 0.5063961748383655 0.0
0.6300838858993604 0.5444332436775964 0.0
0.4964543991880817 0.7413327894593307 0.0
0.4484900743891026 0.7634098810393793 0.0
0.2610311387960884 0.49913926224585753 0.0
0.23867231132211383 0.44988892775171785 0.0
0.7514775071743629 0.5019536932977069 0.0
0.7684776968852967 0.5498172390974461 0.0
0.5002208066634515 0.24909699430372134 0.0
0.5490392023823312 0.23239838203366794 0.0
0.1964180344833544 0.6285037477179873 0.0
0.22778332548558206 0.6674771992354145 0.0
0.17669364411462907 0.6801779513652195 0.0
0.627012261717711 0.8035317372467186 0.0
0.6656957077923245 0.7712481877218995 0.0
0.6792329952384518 0.8231184640133787 0.0
0.3724209186560443 0.19421447429914457 0.0
0.33351623304743283 0.22611380856832713 0.0
0.3204468359124931 0.1758752562755001 0.0
0.8047573696899734 0.3730470984386563 0.0
0.7722411990614708 0.3345340936802549 0.0
0.8235484619456869 0.3207381175584957 0.0
0.2543368763883862 0.7109766071146908 0.0
0.2755511637641761 0.6657378455585354 0.0
0.7092857462905566 0.744017835027605 0.0
0.6623671641391472 0.7208749546091597 0.0
0.29004913064693705 0.25374714201478854 0.0
0.33615139196426336 0.2734982406943743 0.0
0.7444720955249626 0.2909498998064787 0.0
0.7222124285943625 0.3387192978468392 0.0
0.8206646758531175 0.6795914921965103 0.0
0.7709112520171816 0.6663976057632901 0.0
0.7996664318633367 0.6302676062371856 0.0
0.31988827206553055 0.8206339031871008 0.0
0.33179093606985643 0.7711138014560873 0.0
0.3686770188966412 0.7989399621108308 0.0
0.6795255980959121 0.17947764295166135 0.0
0.6661472455732554 0.22963599410381708 0.0
0.6300197433817472 0.200876142531299 0.0
0.17993794531894666 0.3201622179655574 0.0
0.23018217864247148 0.33224107108587836 0.0
0.20225662520326754 0.3692163532758975 0.0
0.41793410783902374 0.4247416960527449 0.0
[...]
POINT_DATA 525
VECTORS vector double
0.0 0.0 0.0
0.0 0.0 0.0
1.0 0.0 0.0
1.0 0.0 0.0
0.0 0.0 0.0
0.0 0.0 0.0
0.0 0.0 0.0
0.0 0.0 0.0
0.0 0.0 0.0
0.0 0.0 0.0
0.0 0.0 0.0
0.0 0.0 0.0
0.0 0.0 0.0
0.0 0.0 0.0
0.0 0.0 0.0
0.0 0.0 0.0
0.0 0.0 0.0
0.0 0.0 0.0
0.0 0.0 0.0
0.0 0.0 0.0
0.0 0.0 0.0
0.0 0.0 0.0
0.0 0.0 0.0
0.0 0.0 0.0
0.0 0.0 0.0
0.0 0.0 0.0
0.0 0.0 0.0
0.0 0.0 0.0
0.0 0.0 0.0
0.0 0.0 0.0
0.0 0.0 0.0
0.0 0.0 0.0
0.0 0.0 0.0
0.0 0.0 0.0
0.0 0.0 0.0
0.0 0.0 0.0
0.0 0.0 0.0
0.0 0.0 0.0
0.0 0.0 0.0
0.0 0.0 0.0
0.0 0.0 0.0
0.0 0.0 0.0
1.0 0.0 0.0
1.0 0.0 0.0
1.0 0.0 0.0
1.0 0.0 0.0
1.0 0.0 0.0
1.0 0.0 0.0
1.0 0.0 0.0
1.0 0.0 0.0
1.0 0.0 0.0
1.0 0.0 0.0
1.0 0.0 0.0
1.0 0.0 0.0
1.0 0.0 0.0
1.0 0.0 0.0
1.0 0.0 0.0
1.0 0.0 0.0
1.0 0.0 0.0
1.0 0.0 0.0
1.0 0.0 0.0
0.0 0.0 0.0
0.0 0.0 0.0
0.0 0.0 0.0
0.0 0.0 0.0
0.0 0.0 0.0
0.0 0.0 0.0
0.0 0.0 0.0
0.0 0.0 0.0
0.0 0.0 0.0
0.0 0.0 0.0
0.0 0.0 0.0
0.0 0.0 0.0
0.0 0.0 0.0
0.0 0.0 0.0
0.0 0.0 0.0
0.0 0.0 0.0
0.0 0.0 0.0
0.0 0.0 0.0
0.0 0.0 0.0
-0.196304077171 -0.00857069374089 0.0
-0.16643865119 -0.205763572914 0.0
-0.139219356688 0.209383964163 0.0
-0.0784791069277 -0.0585067863548 0.0
-0.0852032015225 0.0534369425669 0.0
0.0245229646679 0.00659721509269 0.0
-0.102653911675 0.16221506588 0.0
-0.102026895657 -0.165873639001 0.0
-0.0865855147897 -0.00383097767426 0.0
-0.0738769733256 -0.287725683012 0.0
-0.053584805008 0.309633854989 0.0
-0.0169423034873 -0.0169968014788 0.0
-0.0225808618096 0.0198922242652 0.0
0.203401222076 -0.0728234613901 0.0
-0.0853396115804 0.256225007902 0.0
0.164508439522 0.084349175797 0.0
-0.11012592698 -0.253028980838 0.0
-0.0320240393905 -0.0669801209171 0.0
-0.0440237359725 0.081760831981 0.0
-0.0540061545852 0.0112750917967 0.0
-0.0517760757195 -0.0146147758066 0.0
-0.193187503847 -0.0692758991082 0.0
-0.188469313075 0.117128965239 0.0
-0.157409958174 -0.106979820462 0.0
-0.138781863706 0.0235919922338 0.0
-0.177723089119 0.0794656725809 0.0
-0.182248801206 -0.149020106774 0.0
-0.153331314836 0.0709780848058 0.0
-0.140572819833 -0.0224607629833 0.0
0.420885983554 0.00987576603641 0.0
-0.0327764352108 0.110955574411 0.0
-0.0407440543705 -0.135867863919 0.0
-0.0465389176003 -0.00293199608366 0.0
0.338976128023 -0.0800567725795 0.0
-0.0613038399724 0.295201784397 0.0
-0.00922125808738 -0.023179972305 0.0
-0.0253384269123 0.00746787918453 0.0
-0.0960459910998 -0.310430879082 0.0
0.293624418656 0.103562583847 0.0
-0.0217599967575 -0.00783142622988 0.0
-0.0141232364997 0.0326324703164 0.0
-0.0862353833327 -0.0960062674383 0.0
-0.147189360487 0.213362455768 0.0
-0.0908420775538 -0.103800262807 0.0
-0.0967985778267 0.0224865093655 0.0
-0.0781866629482 0.105403541898 0.0
-0.16541775964 -0.21839881141 0.0
-0.101999921702 0.0989943062679 0.0
-0.0939047657111 -0.029931347793 0.0
0.0505466821451 -0.286809064755 0.0
0.0115165646613 0.287532832095 0.0
-0.0015750179267 -0.00166246746393 0.0
-0.00266230274169 0.0026456699702 0.0
0.539014915258 -0.0129749300868 0.0
-0.0276001546508 0.148343543152 0.0
-0.0147534706101 -0.061802774939 0.0
-0.0365902144335 0.00206495849684 0.0
-0.158145929951 -0.287401807823 0.0
-0.0431256014872 0.203513924258 0.0
-0.0498787214502 -0.0312591405847 0.0
-0.0519219142655 0.0542595764315 0.0
-0.0488364209158 -0.182986090726 0.0
-0.119471532464 0.289135003299 0.0
-0.0418979005962 -0.0506582782582 0.0
-0.0571896976533 0.0293751166008 0.0
-0.204696983098 0.0135671711708 0.0
-0.201957995775 -0.0806012859509 0.0
-0.189915262879 0.0623744746698 0.0
-0.171359188672 -0.0490196860034 0.0
-0.193822298585 -0.150398048746 0.0
-0.168381559689 0.154433129532 0.0
-0.12388964716 -0.0658448065549 0.0
-0.117233683848 0.0558893919439 0.0
0.58450454236 -0.0246246258765 0.0
-0.0270159167399 0.177791939392 0.0
-0.00646903014208 -0.0301717344908 0.0
-0.0253085975454 0.00276439235049 0.0
-0.0360713607537 -0.168221273617 0.0
-0.0256421901777 -0.00391456841733 0.0
0.548223111515 0.0214927097858 0.0
-0.0114468562258 0.0484378280474 0.0
0.323984297168 -0.111729361502 0.0
-0.0556320578309 0.33184215384 0.0
-0.00290038695921 -0.00616191119924 0.0
-0.0084511679361 0.0039117414766 0.0
-0.101632837027 -0.386775332935 0.0
-0.00620961672767 -0.00328821051049 0.0
0.245429786905 0.154903186841 0.0
-0.00461444441459 0.00943703879656 0.0
-0.145522992565 0.00311276320916 0.0
-0.156930594864 0.132184276556 0.0
-0.143352419722 -0.153113465743 0.0
-0.11443808427 -0.00290835260438 0.0
0.181098740102 -0.0284811590732 0.0
-0.0801926720295 0.199370786017 0.0
-0.0538323110313 -0.113908040264 0.0
-0.0664089291838 0.00483672398375 0.0
0.0869350051329 0.0518021726308 0.0
-0.0657855434792 0.12084701929 0.0
-0.107611542974 -0.208348986068 0.0
-0.0667158532278 -0.0123728167605 0.0
-0.172816095925 0.0129612053792 0.0
-0.158504861124 -0.00758903634852 0.0
-0.155491677517 -0.0347781493271 0.0
-0.173757027659 -0.0183080094331 0.0
-0.000347615195377 -0.000219261705075 0.0
0.000145718461775 0.000147549416025 0.0
-0.000752947556613 0.000707135024171 0.0
4.9762667849e-05 -4.8987064682e-05 0.0
0.315475286534 -0.132003329825 0.0
-0.106276788089 -0.356100318992 0.0
-0.0385312444178 0.381466090508 0.0
-0.171618730889 0.309973878683 0.0
-0.000266447189748 -0.000411068066592 0.0
-0.000698219025239 0.000753421115376 0.0
-0.0431488291282 -0.493787510236 0.0
0.214100133874 0.157644531092 0.0
-0.14269104079 0.00117055352125 0.0
-0.156399166043 0.0196748196667 0.0
-0.165184360659 0.0447451466231 0.0
-0.113340259578 0.0501524809381 0.0
-0.146464077603 0.0904700325858 0.0
-0.165691804446 -0.155620725361 0.0
-0.154070335557 -0.178041236947 0.0
-0.176730379923 -0.181859896952 0.0
-0.155218294418 0.10069936366 0.0
-0.129737162788 0.119906508992 0.0
-0.133884391358 0.0912051062689 0.0
-0.126499671451 -0.0118920687247 0.0
-0.110490886515 -0.0169186979865 0.0
-0.118081784667 -0.0293743323013 0.0
-0.19248461211 0.0891694689116 0.0
-0.202125818124 0.0445656608767 0.0
-0.198882654088 0.0675897660188 0.0
-0.193335034736 0.0506110764703 0.0
-0.188200238405 0.0965187341003 0.0
-0.183017656437 -0.0988583008821 0.0
-0.188938753904 -0.0634418682208 0.0
-0.166107165179 -0.0788658378439 0.0
-0.173483004732 -0.128117455593 0.0
-0.192383813436 -0.119911991035 0.0
-0.0776755334771 0.00422487660767 0.0
-0.034947982521 0.0484037448542 0.0
-0.131579637857 0.15403374611 0.0
-0.107685392301 0.134149502237 0.0
-0.12549975312 -0.161911611364 0.0
-0.137466639835 -0.195149466296 0.0
-0.101407985102 -0.00342673870779 0.0
-0.0912951886194 -0.0151104956438 0.0
-0.116605386442 0.24826480239 0.0
-0.136679212963 0.258227116248 0.0
-0.109289491546 0.284233857142 0.0
0.0386962506614 -0.0897293112063 0.0
-0.0586566290133 -0.144219776103 0.0
0.0671166611994 -0.120207155093 0.0
-0.0735602352491 0.0179660267765 0.0
-0.074882378957 0.0289096728311 0.0
-0.0575523051491 0.0191269351212 0.0
-0.0549094296456 -0.0886028415095 0.0
-0.0633777283334 -0.0740525421913 0.0
-0.0379525701935 -0.0598979426972 0.0
-0.13198957251 0.247962511955 0.0
-0.149383707317 0.221453824034 0.0
-0.125066949312 -0.200607773409 0.0
-0.140133544676 -0.15947393317 0.0
-0.0730448238141 0.0416593626296 0.0
-0.0925788308692 0.0381660214161 0.0
-0.0620220970198 -0.0586901440607 0.0
-0.0822337054473 -0.0751114930838 0.0
-0.143700519561 -0.285640861017 0.0
-0.167213540384 -0.259683043037 0.0
-0.142761798383 -0.248650753946 0.0
0.0499889641209 0.139525589748 0.0
-0.0534078799937 0.157494187686 0.0
0.0210369114497 0.106613046906 0.0
-0.0523612508803 -0.0220483286972 0.0
-0.068909963584 -0.0338517348092 0.0
-0.0701043319963 -0.0234902217215 0.0
-0.0490478526756 0.0679675055771 0.0
-0.0740970057493 0.0756433578652 0.0
-0.0663868997466 0.0936661058467 0.0
-0.166454223721 0.0434184516407 0.0
-0.148248288228 0.0445616670308 0.0
0.719660776546 -0.00655687497134 0.0
0.717997863369 0.00660305215267 0.0
-0.00801204366292 0.0545663856648 0.0
-0.00764470597739 0.0689693328851 0.0
-0.00925911168651 -0.08008649627 0.0
-0.0104741844265 -0.0638439051275 0.0
-0.0226348977318 -0.00189311400412 0.0
-0.0242770454339 0.000379744289793 0.0
-0.00986813413871 -0.0916281612158 0.0
-0.0409112539116 -0.152754301379 0.0
-0.0169524290953 -0.0011854654938 0.0
-0.0335542339714 -0.00403002928277 0.0
0.757083441811 0.00250350858214 0.0
0.510814705239 0.0226317739859 0.0
-0.00401903174172 0.033939419664 0.0
-0.0197987937402 0.0695374894541 0.0
-0.148693402203 -0.131890851779 0.0
-0.126709824771 0.00819231746069 0.0
-0.177769653892 -0.222012132191 0.0
-0.164231038829 -0.244285234975 0.0
-0.117717056468 0.166328029324 0.0
-0.103472575028 0.211624431573 0.0
-0.0874218798295 -0.0451172672182 0.0
-0.0650537293174 -0.0450723069548 0.0
-0.0904351425622 0.0693624958822 0.0
-0.0712639597498 0.0574868127235 0.0
-0.172551754539 0.116838978966 0.0
-0.178683669711 0.140679536913 0.0
-0.134133634793 0.0645901447285 0.0
-0.129537107645 0.0417162713 0.0
-0.18293814521 0.0371926405354 0.0
-0.172795451188 0.0707127927797 0.0
-0.206424267814 -0.000975344823033 0.0
-0.196412067174 0.024631859697 0.0
-0.188725063549 -0.0306175328902 0.0
-0.200590348723 -0.0397727688261 0.0
-0.0717760643392 -0.201351108957 0.0
-0.0707579623801 -0.222611524471 0.0
-0.050687749315 -0.00746593085664 0.0
-0.0381644228861 -0.00834077075459 0.0
0.282368982267 0.0474087198605 0.0
0.345323549714 0.0504462327821 0.0
-0.0346962351957 0.0955021224542 0.0
-0.0249617426916 0.0681212900825 0.0
0.66278702604 -0.0275356817849 0.0
0.615222329263 -0.0246409383614 0.0
-0.0212027943017 0.179492388407 0.0
-0.0216181872253 0.216293656364 0.0
-0.00174488079336 -0.0110611813445 0.0
-0.00199528971189 -0.00747991314 0.0
-0.0129957460822 0.00123430677834 0.0
-0.00984789298754 0.00226144429686 0.0
-0.0394648141707 -0.239662601832 0.0
-0.0304599341727 -0.182354781502 0.0
-0.00803312518369 -0.0021614429529 0.0
-0.0114369031325 -0.00161424326671 0.0
0.605490039945 0.0353199578632 0.0
0.664315478739 0.0286745055698 0.0
-0.0032710594452 0.0127048911344 0.0
-0.00335140356905 0.0187891231305 0.0
0.506192650211 -0.00882183205141 0.0
0.749053897747 -0.00294119811874 0.0
-0.0308664652092 0.129527903862 0.0
-0.00712974963053 0.080163007053 0.0
-0.0243658388011 -0.0877168731962 0.0
-0.00492736170449 -0.0402998216512 0.0
-0.0408622899655 -0.000203644760687 0.0
-0.0219249597879 0.000458181682425 0.0
-0.104594371243 -0.285636955783 0.0
-0.143632776339 -0.323130933645 0.0
0.205708070158 0.0976931884501 0.0
0.0703364616323 0.174635778415 0.0
-0.0374420195403 -0.0123608252981 0.0
-0.0350655794232 -0.0187634716555 0.0
-0.027651785088 0.0568329747661 0.0
-0.0327527597096 0.0461850129102 0.0
0.106656974537 -0.0187149711818 0.0
0.276679196424 -0.00974453751757 0.0
0.18063954883 0.0180644562861 0.0
-0.0933565057993 0.183294414046 0.0
-0.0554013482731 0.163640550156 0.0
-0.0701006894917 0.148363462286 0.0
-0.0748058566628 -0.13814180735 0.0
-0.0456758529516 -0.125751403468 0.0
-0.0772212418494 -0.163899028741 0.0
-0.0774208658657 0.00204477122141 0.0
-0.0603074658729 -9.31133177085e-05 0.0
-0.067915634864 -0.00332407447017 0.0
-0.194253040662 -0.107516035241 0.0
-0.168804485058 -0.1321206173 0.0
-0.163505103759 -0.0856825059255 0.0
-0.168399812897 0.18412100359 0.0
-0.171712391648 0.166978444254 0.0
-0.138888066916 -0.0865862484358 0.0
-0.110629790229 -0.0890462973505 0.0
-0.128451425174 -0.108760716485 0.0
-0.110690941407 0.0406489323887 0.0
-0.118327913115 0.0239090700164 0.0
0.0932729143518 -0.172488591917 0.0
0.0943116190049 -0.1457436185 0.0
-0.0538588574255 -0.227567559741 0.0
-0.0873813946006 0.341309162552 0.0
-0.0998347591324 0.316769597266 0.0
-0.098144423102 0.30971375056 0.0
-0.0145717052029 -0.0228348476513 0.0
-0.0241554151241 -0.0381531557525 0.0
-0.0277355355727 -0.032242568974 0.0
-0.0268680058017 0.0145913888004 0.0
-0.0407249821892 0.0178589355872 0.0
-0.0395221650464 0.026005399494 0.0
-0.180005354989 -0.18175533201 0.0
-0.15317999414 0.183049681293 0.0
-0.0997488551309 -0.0641674910995 0.0
-0.102944629879 0.0556669425455 0.0
-0.204175419456 -0.0755642000301 0.0
-0.202266086822 -0.116682146662 0.0
-0.192957488557 -0.153163941194 0.0
-0.14901191056 -0.0612852330846 0.0
-0.13370541947 -0.0444614171618 0.0
0.763409214271 -0.00399888502725 0.0
-0.00733549833906 0.0906536186829 0.0
-0.00356873567776 -0.0274363059366 0.0
-0.0189296269676 0.00083323465293 0.0
0.0692330642425 0.0374460679499 0.0
0.0156667290985 0.0737514093049 0.0
-0.105838441995 -0.190340420139 0.0
-0.130758445189 -0.221123735203 0.0
-0.0808686402799 0.137898214826 0.0
-0.0827237534141 0.113100827461 0.0
-0.0779852440928 -0.00975138818964 0.0
-0.0789132975147 -0.016416704523 0.0
0.325822794382 -0.104360619525 0.0
0.587990743053 -0.0323878863242 0.0
-0.0627574184495 0.321087212743 0.0
-0.0225095710306 0.240735994603 0.0
-0.00530917610693 -0.0119683404422 0.0
-0.000824417124048 -0.00346342901336 0.0
-0.01506521516 0.00585939296909 0.0
-0.00542685706998 0.00124534992985 0.0
-0.0463943987942 -0.295567889896 0.0
-0.107278171366 -0.358303434443 0.0
-0.00393132632812 -0.00105358304803 0.0
-0.011870618412 -0.00550070001364 0.0
0.562798203192 0.0497322668841 0.0
0.263756677699 0.142747424803 0.0
-0.00151839839315 0.00616528809112 0.0
-0.00838345681346 0.0173877386551 0.0
-0.0751402491282 0.284076244964 0.0
0.24347618813 -0.0818184666332 0.0
-0.0409751165793 0.0107475864188 0.0
-0.0192733952855 -0.0437729253169 0.0
-0.138216447148 -0.303181605137 0.0
-0.135931650016 -0.35274070316 0.0
-0.0447379185577 0.254941825902 0.0
0.0632319718469 0.212601914714 0.0
-0.0322584611446 -0.0249996917093 0.0
-0.0217923109427 -0.0137554921924 0.0
-0.0357588937604 0.0360853752856 0.0
-0.0203505911827 0.0290245085785 0.0
-0.000553909256838 -0.00132160231525 0.0
0.497351684606 -0.064246731948 0.0
-0.00252057853245 0.000927067419343 0.0
-0.0487132055783 0.292321877628 0.0
-0.0792459864991 -0.390984888838 0.0
-0.00151810553373 -0.000702659079338 0.0
0.434137606402 0.0926838000824 0.0
-0.00102478378063 0.00264238891046 0.0
0.340263154997 -0.0230606539681 0.0
-0.0554331339917 0.182605125679 0.0
-0.0340883311531 -0.0935842459405 0.0
-0.052902270427 0.00319853406004 0.0
-0.00286116179585 -0.00382626590487 0.0
-0.00565995857276 0.00411526654569 0.0
0.173620334066 -0.191392290173 0.0
-0.073797056917 0.339809359942 0.0
-0.103681514401 -0.379037403227 0.0
-0.00380287801499 -0.00314656559731 0.0
0.10093883515 0.232073526358 0.0
-0.00449065302726 0.00588676365496 0.0
-0.128762831166 -0.248624029134 0.0
-0.100601917849 0.26097526918 0.0
-0.0457482802405 -0.0405502388963 0.0
-0.0545903590735 0.0410111829476 0.0
-0.119856914923 -0.0422305154637 0.0
-0.173082136211 -0.0369538456724 0.0
-0.153494156944 0.167410237209 0.0
-0.177040027302 0.131403812428 0.0
-0.118416387792 -0.132567762349 0.0
-0.111431227942 0.0102010731922 0.0
0.204705469343 0.0260393153717 0.0
-0.0576095559775 0.12536377602 0.0
0.128891573492 0.0697371060774 0.0
-0.0588832302805 0.104324295295 0.0
-0.0817168284253 -0.18513243636 0.0
-0.0623025039436 -0.00890369336625 0.0
-0.110837536139 -0.226768883655 0.0
-0.0629116069403 -0.0142348602219 0.0
0.739506773887 -0.0127652386003 0.0
0.48824483066 -0.0402908967759 0.0
-0.0118601597772 0.128082249513 0.0
-0.0421411277775 0.228829327734 0.0
0.453349481147 0.0469900250363 0.0
0.390717724287 -0.0461747298821 0.0
-0.052922749074 0.231735823386 0.0
-0.0605371394246 -0.227032590525 0.0
-0.0135960923344 0.0417816200302 0.0
-0.0247804785858 -0.0060652547145 0.0
0.744188585049 0.00881478654096 0.0
-0.01536464441 -0.119730359518 0.0
-0.00324548038952 0.0244427575871 0.0
-0.0136578189906 -0.00122756628105 0.0
-0.00154974174543 -0.0138829048879 0.0
-0.00849830750147 -0.0278936144432 0.0
-0.0141366045856 0.000792772205947 0.0
-0.0265410603616 0.00517441382458 0.0
-0.0159071052839 -0.0475169547233 0.0
-0.0385591399105 0.00630883488698 0.0
-0.0270157522245 -0.0362151582766 0.0
-0.129900947785 0.188710272202 0.0
-0.0990743211474 -0.138076392489 0.0
-0.092721985414 0.00761157291565 0.0
-0.187286196622 0.00580354563112 0.0
-0.201935712815 -0.0330664372946 0.0
-0.176208750514 0.100115717716 0.0
0.0969011991095 -0.193705065179 0.0
-0.0715954317747 0.352602405276 0.0
-0.118102699193 -0.369829422345 0.0
-0.00745684490571 -0.0113109970224 0.0
0.0596684469826 0.240276809677 0.0
-0.0147053998709 0.00899045705184 0.0
-0.0109503793051 -0.00773018581643 0.0
-0.0110154243205 0.015194354673 0.0
0.184167513021 -0.0516692477625 0.0
0.0430900050248 -0.0579063465262 0.0
-0.0867482378834 0.226525538131 0.0
-0.111545219516 0.220012038614 0.0
-0.0695619398394 -0.11101991183 0.0
-0.0447140831602 -0.0919068812603 0.0
-0.0630871825365 0.00910354568337 0.0
-0.080045831107 0.00934635405409 0.0
-0.144818914793 0.13638105884 0.0
-0.188956872522 -0.190216594997 0.0
-0.113434402753 0.0782938516529 0.0
-0.109464866125 -0.0478842938153 0.0
-0.0330108945061 -0.306392002254 0.0
-0.0348848311759 0.323533635072 0.0
-0.00695680910852 -0.00733578059418 0.0
-0.00986291663359 0.00967584285678 0.0
-0.207819801166 -0.0375173241887 0.0
0.563899753212 -0.021149853418 0.0
0.769606693643 -0.00471247757931 0.0
-0.0285897396843 0.165805728163 0.0
-0.00718573648358 0.101664605069 0.0
0.360640576163 -0.0364551447027 0.0
-0.0557886985085 0.209410006197 0.0
-0.0101634217414 -0.0429425695421 0.0
-0.002304481444 -0.0185248118898 0.0
-0.0310942013169 0.00275951504953 0.0
-0.0157929598985 0.000987876109711 0.0
-0.0241257991963 -0.0685815359338 0.0
-0.0471207808038 0.00556303684303 0.0
-0.186797621668 0.00261239607024 0.0

SCALARS scalar1 double
LOOKUP_TABLE default
0.0023481555573
-0.00962380943802
-25.480198691
-27.6010924952
-0.00124827331618
0.0224001572814
0.0876324673075
0.185734130337
0.245656469126
0.348075818677
0.442918027191
0.494434883223
0.525227911373
0.544497523093
0.496491684818
0.496623811942
0.401330140029
0.304807802612
0.202846494802
0.140818405008
0.0534606635638
0.00683831448926
-0.00554404534839
-0.00638515865741
0.00330810927678
0.0415751306401
0.121674535017
0.183421265137
0.29293199055
0.44436573038
0.631867864267
0.801145383614
1.22837893986
1.52414178237
2.03878814175
2.74607951192
3.96054069211
5.24743940422
6.92312394222
10.958504062
14.4047451516
9.92796114049
-30.2724454691
-14.4375126459
-13.0762223419
-9.99937585535
-8.54600840017
-7.95969336202
-7.07067821804
-6.48362487551
-5.9961155133
-6.03720463731
-5.77303881666
-6.14659189267
-6.07617687486
-7.18405485021
-8.15226266423
-9.87094070236
-13.9778688195
-17.5005977543
-32.583952821
7.66602666911
10.0887376098
8.31086626058
5.97351780992
5.0484280481
4.27894043386
3.4049438935
2.74535812192
2.20492730081
1.69344494629
1.34658833685
1.10197074729
0.745336821136
0.520757312322
0.336670332624
0.223433608528
0.0916561273713
0.0227305308809
-0.00196836661867
-0.563394682828
-1.64023320484
-1.65902335292
0.200226892754
0.140899668718
-3.43525429346
0.127710066113
0.479982325817
0.196199195861
-3.60680753844
-2.3206111448
0.19425536884
0.199872049339
-4.52155942792
0.492485018281
-4.35354330799
0.781549281995
0.486606197458
0.368502824291
0.26815684188
0.246471980082
-1.51492170772
-0.93797187518
-0.108702005087
-0.0335659115582
-1.63156946251
-0.38692720193
-0.174542135211
-0.046518435398
-5.10823180103
0.741792206351
1.18129296119
0.334069148733
-5.77767561564
1.27642787501
0.294866068609
0.244032739951
1.56066875873
-6.16108361338
0.218921523493
0.322714995269
-2.72590709584
-0.52053633757
0.300248705092
0.150562475446
-2.63619377464
-0.200131514018
0.0939222644846
0.145014080017
-7.50576696794
-3.36110554205
0.069018745034
0.090413486521
-5.32469818373
1.32055308796
0.792905665132
0.376867100087
-0.986114245046
-2.90708768192
0.222732964556
0.228460577813
-3.28728485418
-0.936749542677
0.298029709877
0.208215538432
-1.13038341816
-0.688367282736
-0.558069377246
-0.253413242444
-1.14306768344
-1.44664565651
0.0405221924273
0.0319068262452
-5.72134123819
1.95311133261
0.500399818221
0.3482476952
2.0265703766
0.319799265467
-6.24096668455
0.598985962926
-7.65382556716
1.60489760199
0.134263459502
0.150911171371
0.916903299072
0.125002662905
-7.65137079318
0.171192480933
-2.15617185506
-0.318306693316
0.0738808971149
0.079927957392
-4.23792996097
0.43968752218