# vtk DataFile Version 2.0
2D Simulation Python
ASCII
DATASET UNSTRUCTURED_GRID
FIELD FieldData 1
NODES 1 2 int
525 968

POINTS 525 double
0.0 0.0 0.0
1.0 0.0 0.0
1.0 1.0 0.0
0.0 1.0 0.0
0.04999999999989927 0.0 0.0
0.09999999999981467 0.0 0.0
0.1499999999997036 0.0 0.0
0.1999999999995579 0.0 0.0
0.2499999999994121 0.0 0.0
0.2999999999992664 0.0 0.0
0.3499999999991207 0.0 0.0
0.3999999999989749 0.0 0.0
0.4499999999988346 0.0 0.0
0.4999999999986943 0.0 0.0
0.5499999999988205 0.0 0.0
0.5999999999989468 0.0 0.0
0.6499999999990784 0.0 0.0
0.69999999999921 0.0 0.0
0.7499999999993416 0.0 0.0
0.7999999999994734 0.0 0.0
0.8499999999996051 0.0 0.0
0.8999999999997368 0.0 0.0
0.9499999999998684 0.0 0.0
1.0 0.04999999999989927 0.0
1.0 0.09999999999981467 0.0
1.0 0.1499999999997036 0.0
1.0 0.1999999999995579 0.0
1.0 0.2499999999994121 0.0
1.0 0.2999999999992664 0.0
1.0 0.3499999999991207 0.0
1.0 0.3999999999989749 0.0
1.0 0.4499999999988346 0.0
1.0 0.4999999999986943 0.0
1.0 0.5499999999988205 0.0
1.0 0.5999999999989468 0.0
1.0 0.6499999999990784 0.0
1.0 0.69999999999921 0.0
1.0 0.7499999999993416 0.0
1.0 0.7999999999994734 0.0
1.0 0.8499999999996051 0.0
1.0 0.8999999999997368 0.0
1.0 0.9499999999998684 0.0
0.9499999999998356 1.0 0.0
0.8999999999995836 1.0 0.0
0.8499999999998515 1.0 0.0
0.7999999999999998 1.0 0.0
0.7500000000003858 1.0 0.0
0.7000000000006934 1.0 0.0
0.6500000000010593 1.0 0.0
0.6000000000013869 1.0 0.0
0.5500000000016854 1.0 0.0
0.5000000000020587 1.0 0.0
0.4500000000018616 1.0 0.0
0.4000000000016644 1.0 0.0
0.3500000000014563 1.0 0.0
0.3000000000012483 1.0 0.0
0.2500000000010403 1.0 0.0
0.2000000000008322 1.0 0.0
0.1500000000006241 1.0 0.0
0.100000000000416 1.0 0.0
0.05000000000020799 1.0 0.0
0.0 0.9499999999998356 0.0
0.0 0.8999999999995836 0.0
0.0 0.8499999999998515 0.0
0.0 0.7999999999999998 0.0
0.0 0.7500000000003858 0.0
0.0 0.7000000000006934 0.0
0.0 0.6500000000010593 0.0
0.0 0.6000000000013869 0.0
0.0 0.5500000000016854 0.0
0.0 0.5000000000020587 0.0
0.0 0.4500000000018616 0.0
0.0 0.4000000000016644 0.0
0.0 0.3500000000014563 0.0
0.0 0.3000000000012483 0.0
0.0 0.2500000000010403 0.0
0.0 0.2000000000008322 0.0
0.0 0.1500000000006241 0.0
0.0 0.100000000000416 0.0
0.0 0.05000000000020799 0.0
0.5002485654567741 0.4978772509747641 0.0
0.7033187041193399 0.7014668121912166 0.0
0.2947960274694471 0.7059791390227896 0.0
0.7019765109347386 0.2973854003694347 0.0
0.29568388693037473 0.29424415290997646 0.0
0.49233715615511175 0.7875062963121555 0.0
0.21375508669212986 0.49376182953819303 0.0
0.7917969051207083 0.5071399528090823 0.0
0.5066744650542507 0.2082902354008019 0.0
0.8301472757759408 0.8303350380720145 0.0
0.1695649435653026 0.8302937057890079 0.0
0.8303544566820256 0.1698383369554692 0.0
0.1698440829834122 0.16958673903258378 0.0
0.6406859058298959 0.8535043638144211 0.0
0.1466715863273007 0.6415001294307532 0.0
0.35970150044160865 0.8470180655286812 0.0
0.8473562633002956 0.6400539409957725 0.0
0.8539200894249043 0.3592703585911031 0.0
0.15344966000070004 0.35998353861307664 0.0
0.3591361910627438 0.1457484932820563 0.0
0.6400209064720704 0.1527494243357445 0.0
0.5634894531302499 0.6411949810083936 0.0
0.3700022571702113 0.5831835692540683 0.0
0.6501699690136025 0.4584683482201004 0.0
0.43424867995219774 0.34769178151787783 0.0
0.4199911580160415 0.6535423165578038 0.0
0.6671603730398319 0.5472651882756712 0.0
0.3675828474198274 0.42185120587590474 0.0
0.5353787809342496 0.34899369879448094 0.0
0.45821216700928885 0.8942942904000355 0.0
0.10613438110100798 0.4586944207390949 0.0
0.8948333423245344 0.5417876920543356 0.0
0.5417861419406251 0.10515136575731818 0.0
0.7393236485079606 0.9037718626688892 0.0
0.09619807665257585 0.739522864027752 0.0
0.9038134296350593 0.2606591099195664 0.0
0.2606422228445461 0.09612639967547133 0.0
0.902249338511766 0.7378917011195344 0.0
0.26205394903235185 0.9022558197031812 0.0
0.7378943832597143 0.09774709608275281 0.0
0.09784461968938842 0.26211332432437484 0.0
0.6041869220757199 0.7438331107420559 0.0
0.2555547941938021 0.6073965256207687 0.0
0.747191348542144 0.3968231506991955 0.0
0.3942946628459214 0.25015269940931384 0.0
0.39063865768876654 0.7448167942665088 0.0
0.7468893108044187 0.6052240746426186 0.0
0.2583897488809709 0.39165480421915405 0.0
0.6041726979348193 0.25513500159217406 0.0
0.9140896928828459 0.9141268912093611 0.0
0.08586255538009324 0.9141003181657481 0.0
0.9141278455085173 0.08590935601475548 0.0
0.08591215420033912 0.08586955734573642 0.0
0.5657955326148328 0.9195307524479092 0.0
0.08082055294368601 0.5662303209510793 0.0
0.9196745799035446 0.4341933697829012 0.0
0.4341919187772185 0.0802897940155829 0.0
0.7920368948724936 0.7198463639424368 0.0
0.279414907590983 0.7924561192985627 0.0
0.7198383944872657 0.20804253715396287 0.0
0.20812008213323627 0.2795840826698177 0.0
0.7196526078485981 0.792928792537984 0.0
0.20652278030119622 0.7205991564674166 0.0
0.7932161075990305 0.28035136546983946 0.0
0.28000424614856084 0.20609097594581471 0.0
0.4795404988560692 0.5875387314300778 0.0
0.5810760187199975 0.541961773175441 0.0
0.412758214498036 0.5031718771084444 0.0
0.5622793578713229 0.43498904906636326 0.0
0.6452756399670023 0.632582260551598 0.0
0.34669871486632975 0.6583853703329643 0.0
0.6353551520223354 0.36056868145475124 0.0
0.3477537576246628 0.3437494875399043 0.0
0.6500376376900954 0.9344142896931137 0.0
0.06570023002672935 0.6502426663379111 0.0
0.9344495619886847 0.34995522315069466 0.0
0.34995202340387194 0.06552669505030043 0.0
0.9287479364807032 0.6437780238389056 0.0
0.6437793996849174 0.0712506588328565 0.0
0.35620520487883006 0.9286698456832501 0.0
0.07144780666726668 0.3563382889385904 0.0
0.8342996705031208 0.9277299114197415 0.0
0.07225192086227997 0.8343309756610068 0.0
0.9277328044459978 0.16569814584925438 0.0
0.16569961781206471 0.0722598820779933 0.0
0.9273666001122272 0.8340419609063143 0.0
0.8340432393877059 0.07263164936881608 0.0
0.165943336803982 0.9273771823778921 0.0
0.07264523194988452 0.16595463610696498 0.0
0.4958280319952849 0.6940735067170413 0.0
0.31004381375827395 0.5016000945630474 0.0
0.7182917152159116 0.5002403327530721 0.0
0.4957200526353339 0.2834663204359723 0.0
0.5536697608473748 0.8388075226053253 0.0
0.16183434000939306 0.5547809153535551 0.0
0.8399250223302724 0.4462994244247459 0.0
0.4461862203993219 0.15982212962800135 0.0
0.4262363138093469 0.8178231001598644 0.0
0.1829629278874066 0.42681034411551655 0.0
0.8192171374927334 0.5734103338627005 0.0
0.5733626998256578 0.18093197192725624 0.0
0.467468071118123 0.4253905240841927 0.0
0.5008632097039201 0.38775576596893857 0.0
0.5501057054513525 0.39033220847933736 0.0
0.5158153414404761 0.42774428243499124 0.0
0.9583169763364077 0.09057278427743684 0.0
0.9555477371344725 0.04446104094144228 0.0
0.09057358737104171 0.0416818789562244 0.0
0.04446170761434975 0.0444518716589729 0.0
0.9094269443701651 0.9583166599276147 0.0
0.9555388279581305 0.955547607537806 0.0
0.04167843119920192 0.909431697474023 0.0
0.04444986817926587 0.9555409937729817 0.0
0.9093995780409581 0.04174449833652589 0.0
0.04174648824231278 0.09059987282134199 0.0
0.9582552254550182 0.9093993524696691 0.0
0.09059670414635093 0.9582585182696453 0.0
0.48429970064084243 0.34959618392329606 0.0
0.45083059739845444 0.38702823409607634 0.0
0.453917717644742 0.6721289692306383 0.0
0.4489436759581884 0.7192906845812077 0.0
0.4109994070081297 0.693091663819197 0.0
0.6932211123141774 0.5247409364220479 0.0
0.730258714142838 0.5451630346282524 0.0
0.6998535043858614 0.5735720550458454 0.0
0.3365282329012792 0.45937222732600436 0.0
0.2852588636803336 0.45148338028807383 0.0
0.315837541706303 0.41252953984267415 0.0
0.5167011003454103 0.31257086371064446 0.0
0.5424776760007306 0.27253347371329745 0.0
0.5694299316854414 0.3067358181133547 0.0
0.391091283353437 0.5433052128952505 0.0
0.44326521342978953 0.5434144369548268 0.0
0.4227385419137879 0.58303600557236 0.0
0.4463083752952298 0.625105927744345 0.0
0.39968436252362094 0.6194374464697661 0.0
0.6149177621524187 0.4965553428671899 0.0
0.5719858872137963 0.48455202691233024 0.0
0.6068754813330857 0.4457633928414799 0.0
0.656318021014764 0.5063961748383655 0.0
0.6300838858993604 0.5444332436775964 0.0
0.4964543991880817 0.7413327894593307 0.0
0.4484900743891026 0.7634098810393793 0.0
0.2610311387960884 0.49913926224585753 0.0
0.23867231132211383 0.44988892775171785 0.0
0.7514775071743629 0.5019536932977069 0.0
0.7684776968852967 0.5498172390974461 0.0
0.5002208066634515 0.24909699430372134 0.0
0.5490392023823312 0.23239838203366794 0.0
0.1964180344833544 0.6285037477179873 0.0
0.22778332548558206 0.6674771992354145 0.0
0.17669364411462907 0.6801779513652195 0.0
0.627012261717711 0.8035317372467186 0.0
0.6656957077923245 0.7712481877218995 0.0
0.6792329952384518 0.8231184640133787 0.0
0.3724209186560443 0.19421447429914457 0.0
0.33351623304743283 0.22611380856832713 0.0
0.3204468359124931 0.1758752562755001 0.0
0.8047573696899734 0.3730470984386563 0.0
0.7722411990614708 0.3345340936802549 0.0
0.8235484619456869 0.3207381175584957 0.0
0.2543368763883862 0.7109766071146908 0.0
0.2755511637641761 0.6657378455585354 0.0
0.7092857462905566 0.744017835027605 0.0
0.6623671641391472 0.7208749546091597 0.0
0.29004913064693705 0.25374714201478854 0.0
0.33615139196426336 0.2734982406943743 0.0
0.7444720955249626 0.2909498998064787 0.0
0.7222124285943625 0.3387192978468392 0.0
0.8206646758531175 0.6795914921965103 0.0
0.7709112520171816 0.6663976057632901 0.0
0.7996664318633367 0.6302676062371856 0.0
0.31988827206553055 0.8206339031871008 0.0
0.33179093606985643 0.7711138014560873 0.0
0.3686770188966412 0.7989399621108308 0.0
0.6795255980959121 0.17947764295166135 0.0
0.6661472455732554 0.22963599410381708 0.0
0.6300197433817472 0.200876142531299 0.0
0.17993794531894666 0.3201622179655574 0.0
0.23018217864247148 0.33224107108587836 0.0
0.20225662520326754 0.3692163532758975 0.0
0.41793410783902374 0.4247416960527449 0.0
[...]
POINT_DATA 525
VECTORS vector double
0.0 0.0 0.0
0.0 0.0 0.0
1.0 0.0 0.0
1.0 0.0 0.0
0.0 0.0 0.0
0.0 0.0 0.0
0.0 0.0 0.0
0.0 0.0 0.0
0.0 0.0 0.0
0.0 0.0 0.0
0.0 0.0 0.0
0.0 0.0 0.0
0.0 0.0 0.0
0.0 0.0 0.0
0.0 0.0 0.0
0.0 0.0 0.0
0.0 0.0 0.0
0.0 0.0 0.0
0.0 0.0 0.0
0.0 0.0 0.0
0.0 0.0 0.0
0.0 0.0 0.0
0.0 0.0 0.0
0.0 0.0 0.0
0.0 0.0 0.0
0.0 0.0 0.0
0.0 0.0 0.0
0.0 0.0 0.0
0.0 0.0 0.0
0.0 0.0 0.0
0.0 0.0 0.0
0.0 0.0 0.0
0.0 0.0 0.0
0.0 0.0 0.0
0.0 0.0 0.0
0.0 0.0 0.0
0.0 0.0 0.0
0.0 0.0 0.0
0.0 0.0 0.0
0.0 0.0 0.0
0.0 0.0 0.0
0.0 0.0 0.0
1.0 0.0 0.0
1.0 0.0 0.0
1.0 0.0 0.0
1.0 0.0 0.0
1.0 0.0 0.0
1.0 0.0 0.0
1.0 0.0 0.0
1.0 0.0 0.0
1.0 0.0 0.0
1.0 0.0 0.0
1.0 0.0 0.0
1.0 0.0 0.0
1.0 0.0 0.0
1.0 0.0 0.0
1.0 0.0 0.0
1.0 0.0 0.0
1.0 0.0 0.0
1.0 0.0 0.0
1.0 0.0 0.0
0.0 0.0 0.0
0.0 0.0 0.0
0.0 0.0 0.0
0.0 0.0 0.0
0.0 0.0 0.0
0.0 0.0 0.0
0.0 0.0 0.0
0.0 0.0 0.0
0.0 0.0 0.0
0.0 0.0 0.0
0.0 0.0 0.0
0.0 0.0 0.0
0.0 0.0 0.0
0.0 0.0 0.0
0.0 0.0 0.0
0.0 0.0 0.0
0.0 0.0 0.0
0.0 0.0 0.0
0.0 0.0 0.0
-0.213761741003 0.0486768974718 0.0
-0.138746160541 -0.153021742471 0.0
-0.0851809161609 0.221614631889 0.0
-0.105490733664 -0.0667855981818 0.0
-0.0857889079568 0.0572213970859 0.0
0.058660151825 0.102209995367 0.0
-0.0799979240275 0.154254227747 0.0
-0.178377552346 -0.226689184033 0.0
-0.095571266631 -0.00253503801647 0.0
0.0346399140503 -0.308346448277 0.0
-0.0655755181507 0.249463613794 0.0
-0.0169183572238 -0.017016100277 0.0
-0.0227544359536 0.0196206867692 0.0
0.278309076284 -0.0141057875301 0.0
-0.050516496838 0.209555888934 0.0
0.114117059622 0.129818738018 0.0
-0.175079890522 -0.372855962546 0.0
-0.0507992921281 -0.08494037993 0.0
-0.0407871744887 0.0787437241027 0.0
-0.0556644388103 0.0123095287027 0.0
-0.0557245537891 -0.0165793582289 0.0
-0.172336708329 0.0347167194434 0.0
-0.146551182558 0.166358917156 0.0
-0.226530060459 -0.0982668348513 0.0
-0.151011937249 0.0393519623586 0.0
-0.126296068148 0.160193840381 0.0
-0.248659673925 -0.12610520742 0.0
-0.149479299729 0.0933732976354 0.0
-0.170411943837 -0.009444559391 0.0
0.371558334706 0.0538591348081 0.0
-0.0263524483004 0.101984525457 0.0
-0.0800056843466 -0.21503738895 0.0
-0.0483226626377 -0.00342564596397 0.0
0.439022697133 -0.0648843554908 0.0
-0.0399231427235 0.21971540116 0.0
-0.0112320170862 -0.0227878504061 0.0
-0.0251851288819 0.0076134261341 0.0
-0.115949639765 -0.465083106903 0.0
0.186226016099 0.111553241751 0.0
-0.0202638145923 -0.00862249509661 0.0
-0.0142977157721 0.0320478535582 0.0
-0.0190114663476 0.010513315508 0.0
-0.0969194216815 0.207979255502 0.0
-0.144565731984 -0.127989916353 0.0
-0.10238910259 0.0273303918678 0.0
-0.0386995127457 0.174040243041 0.0
-0.232842929289 -0.245614145195 0.0
-0.0935463649514 0.101980249601 0.0
-0.112771853744 -0.0310340022061 0.0
0.126860984366 -0.316769906805 0.0
-0.0264577916832 0.23264228525 0.0
-0.000233784787796 -0.000374411168193 0.0
-0.00245963855441 0.00238462748692 0.0
0.547512123652 0.0141670953449 0.0
-0.0175770757493 0.125544600543 0.0
-0.0266527612029 -0.085310473123 0.0
-0.0376279943797 0.00226476073974 0.0
-0.147236849894 -0.323553014774 0.0
-0.0377420826901 0.208021286471 0.0
-0.0580203610812 -0.0354617030435 0.0
-0.0513013594682 0.0541517581044 0.0
0.0534853604772 -0.129802799585 0.0
-0.0732890120511 0.246359205056 0.0
-0.056211944783 -0.0590577807721 0.0
-0.0581912903307 0.0304581317149 0.0
-0.185000619076 0.100024564457 0.0
-0.238011997631 -0.0172491511506 0.0
-0.178950784531 0.110340983202 0.0
-0.216376968743 -0.0194081285332 0.0
-0.205288415395 -0.0795237706778 0.0
-0.111262860422 0.197943848468 0.0
-0.169475144279 -0.0648415658474 0.0
-0.118849373592 0.0662998144344 0.0
0.63088173911 -0.010610319775 0.0
-0.0154872136726 0.138493372832 0.0
-0.00979070172929 -0.0342228840254 0.0
-0.0256674856779 0.00296890208038 0.0
-0.0680960324463 -0.287250885218 0.0
-0.0253520895438 -0.0045986160179 0.0
0.45209003087 0.0445004323045 0.0
-0.0109975606684 0.0471781035647 0.0
0.417358263325 -0.114338989772 0.0
-0.0555355516494 0.249896687576 0.0
-0.00221007421512 -0.00361335047662 0.0
-0.00812278336129 0.00380157702648 0.0
-0.0716964884843 -0.504529832466 0.0
-0.00396747639122 -0.00285784244545 0.0
0.152730973965 0.13334823668 0.0
-0.00476129554831 0.00905412663119 0.0
-0.0934654898211 0.112164363956 0.0
-0.130446502468 0.149642012897 0.0
-0.224460500091 -0.173608637054 0.0
-0.130620246066 0.003708326867 0.0
0.213725189535 0.0478538088405 0.0
-0.0545865235481 0.174872642199 0.0
-0.0958021928212 -0.159934753529 0.0
-0.0705556069508 0.00587262396416 0.0
0.0817367987775 0.123867419351 0.0
-0.0570675011379 0.11509684644 0.0
-0.182962539781 -0.298479428575 0.0
-0.0744470306754 -0.0133939389066 0.0
-0.190439598685 0.0465584882591 0.0
-0.185023143668 0.0157749668499 0.0
-0.193637390243 -0.0150076406166 0.0
-0.205071481142 0.0147676398057 0.0
0.00014734559833 0.000892828624098 0.0
0.000512295467552 0.000504967087394 0.0
-0.000482375357046 0.000604213890935 0.0
0.000157153583904 -0.000150132809434 0.0
0.36543447962 -0.137844354588 0.0
-0.0781952277987 -0.372809098902 0.0
-0.0496720733942 0.3320519119 0.0
-0.190160780617 0.28787289964 0.0
0.00081170998975 3.42067313265e-05 0.0
-0.000621859239507 0.000493578326593 0.0
-0.00975506566458 -0.559196656601 0.0
0.159566117384 0.135938683799 0.0
-0.163476653375 0.0171762004243 0.0
-0.171553573679 0.0433167262583 0.0
-0.113720855801 0.140757234175 0.0
-0.0618477552614 0.145663005419 0.0
-0.0911755113292 0.17041903201 0.0
-0.244153540209 -0.157357639765 0.0
-0.238857343876 -0.202382614777 0.0
-0.244288018383 -0.174250847983 0.0
-0.140672399433 0.121746984137 0.0
-0.112977890902 0.128931716089 0.0
-0.124974996103 0.103257141601 0.0
-0.148388769742 -0.00314775007268 0.0
-0.12963282958 -0.0139717881776 0.0
-0.145066305404 -0.0245901354892 0.0
-0.165315978982 0.139897427702 0.0
-0.188447364901 0.110309513161 0.0
-0.165896159743 0.138698262928 0.0
-0.152350301863 0.136610859562 0.0
-0.141512465518 0.164253480077 0.0
-0.24246598688 -0.0643704884926 0.0
-0.236003761284 -0.0205236915177 0.0
-0.224394834664 -0.0569449510658 0.0
-0.244395684179 -0.111260427049 0.0
-0.247799547631 -0.0754237160801 0.0
-0.0254377363733 0.110657428552 0.0
0.00174374874768 0.139271231329 0.0
-0.105162591443 0.156418144761 0.0
-0.0915631502744 0.132996446299 0.0
-0.207310996761 -0.20165932568 0.0
-0.222721672554 -0.2509295313 0.0
-0.114186232051 0.000281108142722 0.0
-0.103917190196 -0.0143480531423 0.0
-0.0707813578894 0.216983905804 0.0
-0.0827405442815 0.231995092451 0.0
-0.0647080656076 0.235059379972 0.0
0.118496461515 -0.00410286543649 0.0
0.0263885888822 -0.0601976187505 0.0
0.166604978372 -0.0566967152875 0.0
-0.0769388644872 0.0200805457087 0.0
-0.0772475859306 0.0317857421966 0.0
-0.0589894269459 0.0203707999287 0.0
-0.0877799852736 -0.11364649312 0.0
-0.094283095475 -0.0911287352122 0.0
-0.0557998264889 -0.0723413093006 0.0
-0.0802230184216 0.234039050319 0.0
-0.0925407189008 0.223649669556 0.0
-0.0578035811448 -0.143075821319 0.0
-0.0847039053639 -0.0732170357993 0.0
-0.0741978909973 0.0439948365725 0.0
-0.0951308754944 0.0426694938505 0.0
-0.0840333346182 -0.0689941418042 0.0
-0.119879080544 -0.0870505678186 0.0
-0.185282069426 -0.375955885663 0.0
-0.201379479896 -0.293233604837 0.0
-0.210238867345 -0.32672549058 0.0
0.0248355037863 0.169508105762 0.0
-0.0317081051211 0.19426951667 0.0
0.0211025314529 0.160548244136 0.0
-0.0583384350248 -0.0248370801383 0.0
-0.0823295859765 -0.037591905274 0.0
-0.0798569031948 -0.0263623775219 0.0
-0.0470033057206 0.066726901054 0.0
-0.0710573263473 0.0757579701763 0.0
-0.0613658596754 0.0921317125439 0.0
-0.171722979994 0.0733497872452 0.0
-0.153870543872 0.0650093239727 0.0
0.668233935278 0.00645129659374 0.0
0.687119882947 0.0210275409194 0.0
-0.00721421523271 0.0520605364615 0.0
-0.00569492695086 0.0638334942759 0.0
-0.0207926644211 -0.134246094645 0.0
-0.0206843027157 -0.100517618793 0.0
-0.0226381294973 -0.00219381015071 0.0
-0.0245916496653 0.000299408582712 0.0
-0.021125661986 -0.162309733957 0.0
-0.0795587565276 -0.255546403837 0.0
-0.0163805048034 -0.00138975677446 0.0
-0.0340408027655 -0.0047701269869 0.0
0.69047935728 0.0120192678536 0.0
0.428417137407 0.0560426863819 0.0
-0.00390734789819 0.033552642014 0.0
-0.0175937982154 0.0663273299884 0.0
-0.225479349622 -0.139013292452 0.0
-0.142043592601 0.0188353722587 0.0
-0.199617240917 -0.205617918789 0.0
-0.142876502046 -0.229513306703 0.0
-0.0708919739816 0.204173159852 0.0
-0.0646455356089 0.220017615595 0.0
-0.111711223048 -0.0495791702981 0.0
-0.0819462330977 -0.0513310187622 0.0
-0.0877427063426 0.0735667873847 0.0
-0.070755895705 0.0590285671565 0.0
-0.117233538488 0.180343259902 0.0
-0.126561126846 0.186329031516 0.0
-0.133197430088 0.0795656102701 0.0
-0.135183335417 0.055055983825 0.0
-0.187393482479 0.0791586674878 0.0
-0.165513989279 0.104071995644 0.0
-0.20853108211 0.0704263342887 0.0
-0.199619677253 0.0811767205561 0.0
-0.221632649845 0.0147103405773 0.0
-0.226583068692 0.0237074805717 0.0
-0.13122130225 -0.317038109691 0.0
-0.122502135585 -0.357464072656 0.0
-0.0535179018142 -0.00869603667574 0.0
-0.0390594998201 -0.00965734476815 0.0
0.220318438054 0.0960831373936 0.0
0.256850893547 0.0859054142582 0.0
-0.0306549063161 0.0905273178601 0.0
-0.0234171486388 0.0654925120952 0.0
0.719462532869 -0.0231764763095 0.0
0.67734294916 -0.0249960625584 0.0
-0.0133991124576 0.130175051282 0.0
-0.0158325942074 0.155421669509 0.0
-0.00219119879635 -0.00865574103707 0.0
-0.0019336061402 -0.0045897673286 0.0
-0.0126444109536 0.00128958554834 0.0
-0.00940260796676 0.00225761358093 0.0
-0.0473405868587 -0.391024914691 0.0
-0.0487913171276 -0.317538541485 0.0
-0.00580799894024 -0.00223782107195 0.0
-0.00955474748577 -0.00187610341043 0.0
0.490326147577 0.0375452329651 0.0
0.55586102623 0.0381460148353 0.0
-0.00345144532667 0.0125342955653 0.0
-0.00348441388366 0.0187562207315 0.0
0.486494615697 0.0283480433509 0.0
0.746395106568 0.0067742956421 0.0
-0.0224398333991 0.114247219797 0.0
-0.00470185172698 0.0709144339567 0.0
-0.0474213924308 -0.131504876314 0.0
-0.00938667449965 -0.0566389080213 0.0
-0.0422341742959 -0.000292637354302 0.0
-0.0222946673585 0.000443063149144 0.0
-0.149078092329 -0.424735443755 0.0
-0.148806299989 -0.424031444578 0.0
0.126205820113 0.122653484774 0.0
0.020636533669 0.179058771742 0.0
-0.0385531528241 -0.0140230990577 0.0
-0.036888870188 -0.020932615717 0.0
-0.0268843695004 0.0553597056547 0.0
-0.0325617112834 0.0453453556208 0.0
0.138037693975 0.0707233871649 0.0
0.273780646135 0.0501050027186 0.0
0.173023827764 0.0932091168667 0.0
-0.067303285238 0.167244546743 0.0
-0.0403809852574 0.145862576238 0.0
-0.0544697545609 0.136583848745 0.0
-0.134012894661 -0.193730652995 0.0
-0.0862036915349 -0.185483437176 0.0
-0.141095398104 -0.243694695587 0.0
-0.0834059454108 0.00323197531182 0.0
-0.063761504404 6.51322243515e-05 0.0
-0.0730698358858 -0.00324327174919 0.0
-0.186142753725 -0.0140222395575 0.0
-0.134235242666 -0.035581382588 0.0
-0.12029440573 0.0244390782764 0.0
-0.110395849756 0.204925477483 0.0
-0.124470963241 0.190311680256 0.0
-0.19793701521 -0.083189696891 0.0
-0.161820109868 -0.0996884514868 0.0
-0.196486444355 -0.120217085396 0.0
-0.115497556522 0.0488221861604 0.0
-0.127246992228 0.033574229811 0.0
0.220898358031 -0.159376504521 0.0
0.211776035985 -0.107972728288 0.0
0.0591320588519 -0.208370644426 0.0
-0.0674256928863 0.26078076702 0.0
-0.0630292316901 0.248731452308 0.0
-0.0724460057361 0.25361236825 0.0
-0.0161690521809 -0.0228061651501 0.0
-0.0313556255119 -0.0424517634754 0.0
-0.0327940810579 -0.0353729185843 0.0
-0.0269374464059 0.0145912947538 0.0
-0.0412087081526 0.0183347355844 0.0
-0.039936284638 0.0261566940705 0.0
-0.171206419251 -0.117855494267 0.0
-0.0958666925758 0.21122964398 0.0
-0.136860490551 -0.0703668089011 0.0
-0.10333994497 0.0621053006346 0.0
-0.211392427834 0.0131717749012 0.0
-0.229390547066 -0.0459903067043 0.0
-0.240162273628 -0.109032028196 0.0
-0.198259200926 -0.0480978157044 0.0
-0.171714526456 -0.0366422398155 0.0
0.77911274536 0.00301397582609 0.0
-0.00422643530798 0.0762322681753 0.0
-0.00610061628016 -0.0344033741 0.0
-0.0191584164203 0.000882625416343 0.0
0.0790385726829 0.118198655582 0.0
0.0285767311372 0.14710021305 0.0
-0.183847280271 -0.268654602797 0.0
-0.211375533733 -0.293612405875 0.0
-0.0668020198419 0.13125469654 0.0
-0.0723318976603 0.11045766401 0.0
-0.0864740659886 -0.0100756493157 0.0
-0.0899922607612 -0.0171603579962 0.0
0.429325570988 -0.100407040774 0.0
0.645646540447 -0.0344897842688 0.0
-0.0511306833118 0.23671507285 0.0
-0.0212650086009 0.177020739335 0.0
-0.00520642654847 -0.00945249513224 0.0
-0.000460984078336 -0.000883618672765 0.0
-0.0147498780288 0.00582552847939 0.0
-0.00497581721335 0.00120005314976 0.0
-0.0432611715257 -0.438148043338 0.0
-0.0980967565494 -0.499092384808 0.0
-0.00182457855389 -0.000879119391028 0.0
-0.00955950745045 -0.0055558457863 0.0
0.458129229918 0.0446676788546 0.0
0.159445273963 0.133344969487 0.0
-0.00160146449687 0.00586607114831 0.0
-0.00868254252829 0.0170137601104 0.0
-0.0440042469363 0.221466296031 0.0
0.338192947581 -0.0447287563122 0.0
-0.0415974014659 0.0112897385839 0.0
-0.0274472408767 -0.050472613861 0.0
-0.0745499625804 -0.33405342524 0.0
-0.0984212294515 -0.446331601542 0.0
-0.0500364097573 0.227003226992 0.0
0.00258264380226 0.192215831399 0.0
-0.0356206395812 -0.0274820901658 0.0
-0.0210852512004 -0.0146108518453 0.0
-0.0359859923765 0.0357937181322 0.0
-0.0206708400567 0.0284949307508 0.0
-0.000154571237049 0.000561102716239 0.0
0.5518011241 -0.0651169585413 0.0
-0.00213131021894 0.000861934337387 0.0
-0.0509455825027 0.2306292249 0.0
-0.0621289366112 -0.505873627537 0.0
0.000179961615315 -0.000421337193903 0.0
0.349016021131 0.0805053829123 0.0
-0.00102996292032 0.00230143107278 0.0
0.354607601659 0.0310224103515 0.0
-0.0368487677258 0.156731718681 0.0
-0.0617994347043 -0.132954967109 0.0
-0.0551832309199 0.0036906564443 0.0
-0.00174195560776 -0.00174330841531 0.0
-0.00535443619062 0.00391739066262 0.0
0.268319137843 -0.20123933701 0.0
-0.0894241729574 0.263597889665 0.0
-0.0378357244428 -0.451981186916 0.0
-0.00177454634337 -0.00223545771385 0.0
0.0324140238666 0.189766518846 0.0
-0.0044738119152 0.00552604598099 0.0
-0.0586541587084 -0.229130799677 0.0
-0.0683461491303 0.23742071481 0.0
-0.0566009062723 -0.0463648160621 0.0
-0.054923689637 0.0416118815384 0.0
-0.0644429893958 0.0725124408274 0.0
-0.132669663747 0.0745568123853 0.0
-0.11444797393 0.178363933647 0.0
-0.141173595431 0.162351795043 0.0
-0.191317117671 -0.157390330856 0.0
-0.122690955298 0.0163235971737 0.0
0.176281528053 0.0934381756344 0.0
-0.0483146962719 0.116862478323 0.0
0.102832029271 0.13050554443 0.0
-0.0522152405926 0.0998006018296 0.0
-0.149884312869 -0.279834633217 0.0
-0.0671588106773 -0.00992529975543 0.0
-0.185356374329 -0.330055864387 0.0
-0.0690340361214 -0.0158848007823 0.0
0.780846074714 -0.0092354916532 0.0
0.557151923647 -0.0242304240339 0.0
-0.00685675426305 0.0966341108518 0.0
-0.0243091641013 0.173370450001 0.0
0.342925841179 0.0681797108512 0.0
0.452482232272 -0.0137054920432 0.0
-0.0305500788831 0.183132358091 0.0
-0.0976803663026 -0.375513385583 0.0
-0.0134487444158 0.0409552123461 0.0
-0.0238733222546 -0.00695456774329 0.0
0.658456498981 0.019462193787 0.0
-0.0303983094978 -0.21713361109 0.0
-0.0032632665168 0.0244292260254 0.0
-0.0124817950341 -0.0014752042087 0.0
-0.00223213606629 -0.0129790226842 0.0
-0.011724715791 -0.0296952322341 0.0
-0.0139749872614 0.000857753924949 0.0
-0.0266147026179 0.00541239619054 0.0
-0.0246939207377 -0.0576459306782 0.0
-0.0393197779815 0.00679149162432 0.0
0.029445341206 0.0728597957863 0.0
-0.093460901394 0.180139740882 0.0
-0.167497218467 -0.181118655242 0.0
-0.101141518002 0.0111765543148 0.0
-0.148702421339 0.108321005762 0.0
-0.183165816106 0.0658395863732 0.0
-0.15505068033 0.134059785644 0.0
0.21985512156 -0.196525078823 0.0
-0.0727052736956 0.267662034863 0.0
-0.0517329961857 -0.447414980099 0.0
-0.00672280121446 -0.00940694576825 0.0
-0.00465973523417 0.200409622905 0.0
-0.0145731713424 0.00882670246117 0.0
-0.00891295825067 -0.00719486441663 0.0
-0.0112178706294 0.0147868335003 0.0
0.237221938611 0.0203225790105 0.0
0.105371062774 0.0377228425791 0.0
-0.0546056875047 0.192812618606 0.0
-0.0749368579095 0.197967947672 0.0
-0.119359942113 -0.147675539643 0.0
-0.075991105822 -0.123914485226 0.0
-0.0660468396355 0.0104336936442 0.0
-0.085011532536 0.0115851470714 0.0
-0.0887522696406 0.191807979657 0.0
-0.227590472197 -0.161529244874 0.0
-0.110387258706 0.0864176596383 0.0
-0.140777216292 -0.0484850320569 0.0
0.0731494718748 -0.339841189843 0.0
-0.0705680747028 0.255392787399 0.0
-0.00526148450594 -0.00587352673058 0.0
-0.00981715470141 0.00935898960834 0.0
-0.214382076199 0.0445501962379 0.0
0.595328635301 -0.000276192166675 0.0
0.798699980946 -0.00047377787475 0.0
-0.0168749825372 0.134205775345 0.0
-0.00373344424442 0.0810022434615 0.0
0.400702621771 0.00845171353322 0.0
-0.0339152835745 0.172700660825 0.0
-0.0168975115841 -0.0539213912223 0.0
-0.00350196827619 -0.020204446241 0.0
-0.031699899946 0.00301430029584 0.0
-0.0158321266975 0.00105149299072 0.0
-0.0409999846431 -0.090806010886 0.0
-0.0486375753114 0.00616493739431 0.0
-0.205151356185 0.0481551861274 0.0

SCALARS scalar1 double
LOOKUP_TABLE default
-0.00173095424013
-0.013164678377
-25.0808688348
-27.9804073183
-0.0060982052422
0.0119983641123
0.0731082044118
0.171269341706
0.233228553434
0.337704402319
0.437652578988
0.495643135539
0.530519896868
0.549896833141
0.494029249659
0.486309655009
0.369320523297
0.255740876797
0.14324752191
0.0773659681382
-0.00664282240158
-0.0319622403143
-0.0213636206351
-0.0223151121918
-0.0382076454715
-0.0284950501712
0.0369620895271
0.0948629442131
0.218297167074
0.418161356918
0.723923815713
1.02364170757
1.84933433754
2.50450660439
3.53957252945
5.08483953282
7.25634881047
9.16447154492
11.3427401683
15.2895650102
17.3359220703
11.0231334122
-29.3804964627
-13.0266414185
-11.5353254739
-8.47906429559
-7.07912845456
-6.53297756024
-5.9179404316
-5.75427216217
-5.72538922882
-6.47551196894
-6.76037524959
-7.65101094126
-8.31802212309
-9.99611683903
-11.2840961458
-13.1633423023
-17.0884051558
-19.7014785952
-33.5116456656
6.80931304954
8.43040672728
6.37918357636
4.2593377244
3.59651788754
3.12173020139
2.6359518253
2.26087823832
1.91960598479
1.55796976073
1.27687944937
1.07902284747
0.751388381043
0.524614854422
0.336685592698
0.21768661673
0.0808640779001
0.013377911685
-0.00633652897245
-0.808642568896
-3.49960032334
-0.770421511223
0.396040307312
0.159557425502
-2.69593261102
0.120416572008
0.308144869919
0.26260543666
-5.23980038124
-0.823782633357
0.282670963492
0.208402921365
-4.34727319807
0.505876147157
-2.93468394319
-0.189964496764
0.793483855259
0.321181033583
0.290714006245
0.325254080424
-2.23939933228
-0.753963535257
-0.407438756613
-0.00194181508573
-1.35497010045
-1.36638553843
-0.152579326922
0.0151051153214
-4.73175898068
0.61257700395
1.81740496441
0.365438381848
-5.30419106362
1.21089885867
0.404081032608
0.253999773157
0.341182035764
-4.97838866504
0.256656817984
0.30827221611
-3.23578880702
-0.235904941841
0.458190942758
0.18918986488
-1.62861960462
-1.74400931683
0.0990665574178
0.281838697438
-7.87648686775
-2.77400686725
0.0679614871597
0.0940873865399
-5.28036961716
1.05846930141
1.23735222473
0.391722027461
-3.49484584043
-1.33028103266
0.36659629625
0.22477288688
-4.39781633319
-0.164958982337
0.51736592602
0.227839794341
-1.35089947786
-1.35541837525
-0.578450235343
-0.395811538539
-2.54100363372
-0.911732305006
0.134547506408
0.0560832557057
-5.38976914627
1.53162960614
0.684686863854
0.355926783405
2.9468146825
0.337507850734
-6.42739345936
0.551069035959
-6.75281081486
1.57718874244
0.148618480874
0.155181570919
-0.751528101909
0.132250790752
-6.73831225076
0.173935030638
-2.10292998672
-0.232464106078
-0.440159805365
0.153625797578
-3.72845119315
0.367507884034
0.999834431515
0.300949033584
-2.68498946419