# vtk DataFile Version 2.0
2D Simulation Python
ASCII
DATASET UNSTRUCTURED_GRID
FIELD FieldData 1
NODES 1 2 int
2017 3872

POINTS 2017 double
0.0 0.0 0.0
1.0 0.0 0.0
1.0 1.0 0.0
0.0 1.0 0.0
0.02499999999995297 0.0 0.0
0.04999999999989927 0.0 0.0
0.07499999999985263 0.0 0.0
0.09999999999981467 0.0 0.0
0.1249999999997765 0.0 0.0
0.1499999999997036 0.0 0.0
0.1749999999996308 0.0 0.0
0.1999999999995579 0.0 0.0
0.224999999999485 0.0 0.0
0.2499999999994121 0.0 0.0
0.2749999999993393 0.0 0.0
0.2999999999992664 0.0 0.0
0.3249999999991935 0.0 0.0
0.3499999999991207 0.0 0.0
0.3749999999990478 0.0 0.0
0.3999999999989749 0.0 0.0
0.4249999999989048 0.0 0.0
0.4499999999988346 0.0 0.0
0.4749999999987644 0.0 0.0
0.4999999999986943 0.0 0.0
0.5249999999987575 0.0 0.0
0.5499999999988205 0.0 0.0
0.5749999999988837 0.0 0.0
0.5999999999989468 0.0 0.0
0.6249999999990127 0.0 0.0
0.6499999999990784 0.0 0.0
0.6749999999991443 0.0 0.0
0.69999999999921 0.0 0.0
0.7249999999992759 0.0 0.0
0.7499999999993416 0.0 0.0
0.7749999999994075 0.0 0.0
0.7999999999994734 0.0 0.0
0.8249999999995392 0.0 0.0
0.8499999999996051 0.0 0.0
0.8749999999996709 0.0 0.0
0.8999999999997368 0.0 0.0
0.9249999999998026 0.0 0.0
0.9499999999998684 0.0 0.0
0.9749999999999343 0.0 0.0
1.0 0.02499999999995297 0.0
1.0 0.04999999999989927 0.0
1.0 0.07499999999985263 0.0
1.0 0.09999999999981467 0.0
1.0 0.1249999999997765 0.0
1.0 0.1499999999997036 0.0
1.0 0.1749999999996308 0.0
1.0 0.1999999999995579 0.0
1.0 0.224999999999485 0.0
1.0 0.2499999999994121 0.0
1.0 0.2749999999993393 0.0
1.0 0.2999999999992664 0.0
1.0 0.3249999999991935 0.0
1.0 0.3499999999991207 0.0
1.0 0.3749999999990478 0.0
1.0 0.3999999999989749 0.0
1.0 0.4249999999989048 0.0
1.0 0.4499999999988346 0.0
1.0 0.4749999999987644 0.0
1.0 0.4999999999986943 0.0
1.0 0.5249999999987575 0.0
1.0 0.5499999999988205 0.0
1.0 0.5749999999988837 0.0
1.0 0.5999999999989468 0.0
1.0 0.6249999999990127 0.0
1.0 0.6499999999990784 0.0
1.0 0.6749999999991443 0.0
1.0 0.69999999999921 0.0
1.0 0.7249999999992759 0.0
1.0 0.7499999999993416 0.0
1.0 0.7749999999994075 0.0
1.0 0.7999999999994734 0.0
1.0 0.8249999999995392 0.0
1.0 0.8499999999996051 0.0
1.0 0.8749999999996709 0.0
1.0 0.8999999999997368 0.0
1.0 0.9249999999998026 0.0
1.0 0.9499999999998684 0.0
1.0 0.9749999999999343 0.0
0.9749999999998877 1.0 0.0
0.9499999999998356 1.0 0.0
0.9249999999996992 1.0 0.0
0.8999999999995836 1.0 0.0
0.8749999999997078 1.0 0.0
0.8499999999998515 1.0 0.0
0.8249999999999216 1.0 0.0
0.7999999999999998 1.0 0.0
0.77500000000021 1.0 0.0
0.7500000000003858 1.0 0.0
0.7250000000005448 1.0 0.0
0.7000000000006934 1.0 0.0
0.6750000000009306 1.0 0.0
0.6500000000010593 1.0 0.0
0.6250000000012101 1.0 0.0
0.6000000000013869 1.0 0.0
0.5750000000015277 1.0 0.0
0.5500000000016854 1.0 0.0
0.5250000000018821 1.0 0.0
0.5000000000020587 1.0 0.0
0.4750000000019601 1.0 0.0
0.4500000000018616 1.0 0.0
0.425000000001763 1.0 0.0
0.4000000000016644 1.0 0.0
0.3750000000015603 1.0 0.0
0.3500000000014563 1.0 0.0
0.3250000000013522 1.0 0.0
0.3000000000012483 1.0 0.0
0.2750000000011442 1.0 0.0
0.2500000000010403 1.0 0.0
0.2250000000009362 1.0 0.0
0.2000000000008322 1.0 0.0
0.1750000000007281 1.0 0.0
0.1500000000006241 1.0 0.0
0.12500000000052 1.0 0.0
0.100000000000416 1.0 0.0
0.07500000000031193 1.0 0.0
0.05000000000020799 1.0 0.0
0.02500000000010394 1.0 0.0
0.0 0.9749999999998877 0.0
0.0 0.9499999999998356 0.0
0.0 0.9249999999996992 0.0
0.0 0.8999999999995836 0.0
0.0 0.8749999999997078 0.0
0.0 0.8499999999998515 0.0
0.0 0.8249999999999216 0.0
0.0 0.7999999999999998 0.0
0.0 0.77500000000021 0.0
0.0 0.7500000000003858 0.0
0.0 0.7250000000005448 0.0
0.0 0.7000000000006934 0.0
0.0 0.6750000000009306 0.0
0.0 0.6500000000010593 0.0
0.0 0.6250000000012101 0.0
0.0 0.6000000000013869 0.0
0.0 0.5750000000015277 0.0
0.0 0.5500000000016854 0.0
0.0 0.5250000000018821 0.0
0.0 0.5000000000020587 0.0
0.0 0.4750000000019601 0.0
0.0 0.4500000000018616 0.0
0.0 0.425000000001763 0.0
0.0 0.4000000000016644 0.0
0.0 0.3750000000015603 0.0
0.0 0.3500000000014563 0.0
0.0 0.3250000000013522 0.0
0.0 0.3000000000012483 0.0
0.0 0.2750000000011442 0.0
0.0 0.2500000000010403 0.0
0.0 0.2250000000009362 0.0
0.0 0.2000000000008322 0.0
0.0 0.1750000000007281 0.0
0.0 0.1500000000006241 0.0
0.0 0.12500000000052 0.0
0.0 0.100000000000416 0.0
0.0 0.07500000000031193 0.0
0.0 0.05000000000020799 0.0
0.0 0.02500000000010394 0.0
0.499475559262911 0.49733817513189504 0.0
0.7050969024672236 0.7038532372424218 0.0
0.2945901692568507 0.7065571304551173 0.0
0.7042605511371729 0.2947329338818596 0.0
0.2944399248553856 0.29451319399767095 0.0
0.4938420331702748 0.7871909590719653 0.0
0.21359863203681972 0.4949808732599596 0.0
0.7895261794968331 0.5061408539158909 0.0
0.5061181277210005 0.21037258962369415 0.0
0.8289033628673366 0.8291206886456077 0.0
0.1708469941104095 0.8289229942067222 0.0
0.829122031533557 0.17109531510206083 0.0
0.17111604908440944 0.17086117524581923 0.0
0.6411639827187721 0.8530393548135381 0.0
0.14735990282682118 0.6420151923760986 0.0
0.35988508942830355 0.847004621754407 0.0
0.8471860236774795 0.639971374323324 0.0
0.8531096031747767 0.35881945357386924 0.0
0.15315037738230716 0.35998838486130147 0.0
0.358810551304107 0.14685030838763008 0.0
0.6399759736617123 0.15280517460030107 0.0
0.5657118015177651 0.6418343105513475 0.0
0.3702475691364918 0.5811173143732409 0.0
0.647465972120427 0.45330922266153684 0.0
0.43390061403888847 0.3510347732616804 0.0
0.4234897123627652 0.6538587162893692 0.0
0.6660387719153733 0.5473227157168399 0.0
0.36245338527048787 0.42536479894014356 0.0
0.5387742992181301 0.34631192625315566 0.0
0.45891201101023976 0.8930419175161366 0.0
0.10736701320905928 0.45940345962350554 0.0
0.8931773262591631 0.5410720386692545 0.0
0.5410729204069248 0.10681863426604293 0.0
0.7386975983904491 0.9035957043328893 0.0
0.09639458328462397 0.7387596988579823 0.0
0.9035976167021256 0.26130131340660656 0.0
0.261303196036194 0.09639732159683387 0.0
0.9018153073126154 0.737579460148221 0.0
0.26239427748027133 0.901798461255267 0.0
0.737579925402549 0.09818383649237736 0.0
0.0982285732587932 0.2624097077718782 0.0
0.6056871185603857 0.7447499680927023 0.0
0.25550465289505 0.6081133865165902 0.0
0.7465167200868591 0.3946224800064208 0.0
0.39384971763751203 0.25237586126242306 0.0
0.3924077892482704 0.7453658083651618 0.0
0.7469478446682001 0.6055752923699336 0.0
0.2559980007279122 0.39305740151861346 0.0
0.6055168573505693 0.2533380971165539 0.0
0.9104861577576799 0.910512921401407 0.0
0.08948604693011447 0.9104863789546558 0.0
0.9105129229152336 0.08951384071217075 0.0
0.08951439022389032 0.08948680966645994 0.0
0.5668068842043881 0.9184076232115317 0.0
0.08204690405590108 0.5672481585651569 0.0
0.9184159779235355 0.4331911457623314 0.0
0.43319127933117735 0.08158277844739534 0.0
0.7928845691952986 0.7207379557530306 0.0
0.2789865586756975 0.7929390414964583 0.0
0.7207744185719815 0.2070781171590184 0.0
0.2072971935195554 0.27908004294721966 0.0
0.7213626300435856 0.7945561097011926 0.0
0.20536175023233924 0.7219593369566705 0.0
0.7946297056568027 0.2785993577019743 0.0
0.27858965827114585 0.2052423294988775 0.0
0.48143535767008694 0.5873527073532542 0.0
0.5811336554218043 0.541011259181374 0.0
0.41047293587125816 0.5019140195744491 0.0
0.5612299042112097 0.4309959236858929 0.0
0.6465329917972248 0.6347169155184555 0.0
0.34881300009027694 0.6574546318781287 0.0
0.6372394615879042 0.3553092709181802 0.0
0.34587428359345557 0.3475659198110296 0.0
0.6501093871608354 0.9337757326591962 0.0
0.06627644690404341 0.6501827072644071 0.0
0.9337763597627202 0.34989048046057897 0.0
0.3498905304493748 0.06622321280667917 0.0
0.9282178836409478 0.644024363623176 0.0
0.6440243933265902 0.07178200550393393 0.0
0.3559656342027112 0.9282045336499943 0.0
0.0718242743967158 0.35600372379572 0.0
0.8309456108933448 0.9257452583116693 0.0
0.07425234410706455 0.8309469205409703 0.0
0.9257452670199302 0.16905438169225323 0.0
0.16905493016395798 0.07425373693771026 0.0
0.925411158036288 0.830925957037489 0.0
0.8309259622200833 0.07458883503615277 0.0
0.16907110184737656 0.9254100194573303 0.0
0.07459303797007649 0.16907320652798197 0.0
0.4994497716282873 0.6951660091142066 0.0
0.3068568712974233 0.5027448029904495 0.0
0.7154379215631829 0.4983202555115587 0.0
0.49682413429834565 0.28464791253399946 0.0
0.5543834472571074 0.8377741642074432 0.0
0.16342419165956457 0.5560271816113402 0.0
0.8380746637771362 0.44561044185164045 0.0
0.4456088882570035 0.16188029496877232 0.0
0.42716376791075217 0.8174017936281011 0.0
0.1829033691591463 0.42744066551857807 0.0
0.8180234793570906 0.5726558455427702 0.0
0.5726599413408329 0.18196166588002705 0.0
0.4658382293336628 0.42586842083790144 0.0
0.5020587259693546 0.3866747933245478 0.0
0.5517283317470997 0.3864709802692513 0.0
0.5152384921946177 0.42603373847518156 0.0
0.9560843471866907 0.09325715899020828 0.0
0.9535463246608105 0.046457817135342125 0.0
0.09325721028916706 0.043915572875542194 0.0
0.04645785795419752 0.04645367359971077 0.0
0.9067428409479307 0.9560843471041839 0.0
0.9535421828520876 0.9535463246483853 0.0
0.04391537635622998 0.9067429340789233 0.0
0.04645357498770461 0.9535422306738006 0.0
0.9067494356834269 0.04393979031984689 0.0
0.04394003166084484 0.09325058407830142 0.0
0.9560602096013366 0.9067494356260517 0.0
0.09325032567333326 0.9560602609571429 0.0
0.4862595504298914 0.3499183869727787 0.0
0.4498580519844422 0.3890109794117216 0.0
0.4577591778721526 0.6732523316866295 0.0
0.453074255487004 0.7200484242183893 0.0
0.41471148454735796 0.6928362688305307 0.0
0.691063699041008 0.5234913163362922 0.0
0.7281992781400037 0.54324367966215 0.0
0.6983920011064869 0.5738468336222186 0.0
0.3315419533853716 0.4616814825999963 0.0
0.28199762581643706 0.45454129562947343 0.0
0.3120893048801259 0.41599929347042847 0.0
0.5192435610856783 0.31157240508014006 0.0
0.5426284210370399 0.27238303995731955 0.0
0.5723464005132175 0.3044846830851564 0.0
[...]
POINT_DATA 2017
VECTORS vector double
0.0 0.0 0.0
0.0 0.0 0.0
0.0 0.0 0.0
0.0 0.0 0.0
0.0 0.0 0.0
0.0 0.0 0.0
0.0 0.0 0.0
0.0 0.0 0.0
0.0 0.0 0.0
0.0 0.0 0.0
0.0 0.0 0.0
0.0 0.0 0.0
0.0 0.0 0.0
0.0 0.0 0.0
0.0 0.0 0.0
0.0 0.0 0.0
0.0 0.0 0.0
0.0 0.0 0.0
0.0 0.0 0.0
0.0 0.0 0.0
0.0 0.0 0.0
0.0 0.0 0.0
0.0 0.0 0.0
0.0 0.0 0.0
0.0 0.0 0.0
0.0 0.0 0.0
0.0 0.0 0.0
0.0 0.0 0.0
0.0 0.0 0.0
0.0 0.0 0.0
0.0 0.0 0.0
0.0 0.0 0.0
0.0 0.0 0.0
0.0 0.0 0.0
0.0 0.0 0.0
0.0 0.0 0.0
0.0 0.0 0.0
0.0 0.0 0.0
0.0 0.0 0.0
0.0 0.0 0.0
0.0 0.0 0.0
0.0 0.0 0.0
0.0 0.0 0.0
0.0 0.0 0.0
0.0 0.0 0.0
0.0 0.0 0.0
0.0 0.0 0.0
0.0 0.0 0.0
0.0 0.0 0.0
0.0 0.0 0.0
0.0 0.0 0.0
0.0 0.0 0.0
0.0 0.0 0.0
0.0 0.0 0.0
0.0 0.0 0.0
0.0 0.0 0.0
0.0 0.0 0.0
0.0 0.0 0.0
0.0 0.0 0.0
0.0 0.0 0.0
0.0 0.0 0.0
0.0 0.0 0.0
0.0 0.0 0.0
0.0 0.0 0.0
0.0 0.0 0.0
0.0 0.0 0.0
0.0 0.0 0.0
0.0 0.0 0.0
0.0 0.0 0.0
0.0 0.0 0.0
0.0 0.0 0.0
0.0 0.0 0.0
0.0 0.0 0.0
0.0 0.0 0.0
0.0 0.0 0.0
0.0 0.0 0.0
0.0 0.0 0.0
0.0 0.0 0.0
0.0 0.0 0.0
0.0 0.0 0.0
0.0 0.0 0.0
0.0 0.0 0.0
1.0 0.0 0.0
1.0 0.0 0.0
1.0 0.0 0.0
1.0 0.0 0.0
1.0 0.0 0.0
1.0 0.0 0.0
1.0 0.0 0.0
1.0 0.0 0.0
1.0 0.0 0.0
1.0 0.0 0.0
1.0 0.0 0.0
1.0 0.0 0.0
1.0 0.0 0.0
1.0 0.0 0.0
1.0 0.0 0.0
1.0 0.0 0.0
1.0 0.0 0.0
1.0 0.0 0.0
1.0 0.0 0.0
1.0 0.0 0.0
1.0 0.0 0.0
1.0 0.0 0.0
1.0 0.0 0.0
1.0 0.0 0.0
1.0 0.0 0.0
1.0 0.0 0.0
1.0 0.0 0.0
1.0 0.0 0.0
1.0 0.0 0.0
1.0 0.0 0.0
1.0 0.0 0.0
1.0 0.0 0.0
1.0 0.0 0.0
1.0 0.0 0.0
1.0 0.0 0.0
1.0 0.0 0.0
1.0 0.0 0.0
1.0 0.0 0.0
1.0 0.0 0.0
0.0 0.0 0.0
0.0 0.0 0.0
0.0 0.0 0.0
0.0 0.0 0.0
0.0 0.0 0.0
0.0 0.0 0.0
0.0 0.0 0.0
0.0 0.0 0.0
0.0 0.0 0.0
0.0 0.0 0.0
0.0 0.0 0.0
0.0 0.0 0.0
0.0 0.0 0.0
0.0 0.0 0.0
0.0 0.0 0.0
0.0 0.0 0.0
0.0 0.0 0.0
0.0 0.0 0.0
0.0 0.0 0.0
0.0 0.0 0.0
0.0 0.0 0.0
0.0 0.0 0.0
0.0 0.0 0.0
0.0 0.0 0.0
0.0 0.0 0.0
0.0 0.0 0.0
0.0 0.0 0.0
0.0 0.0 0.0
0.0 0.0 0.0
0.0 0.0 0.0
0.0 0.0 0.0
0.0 0.0 0.0
0.0 0.0 0.0
0.0 0.0 0.0
0.0 0.0 0.0
0.0 0.0 0.0
0.0 0.0 0.0
0.0 0.0 0.0
0.0 0.0 0.0
-0.194420588149 0.0530731919597 0.0
-0.146907239691 -0.145015206104 0.0
-0.0889513061505 0.210900957807 0.0
-0.0912390783444 -0.0610395414445 0.0
-0.0731573346299 0.0530900719853 0.0
0.0430178778009 0.108066418517 0.0
-0.0717283108637 0.141310726613 0.0
-0.17095331927 -0.214902544614 0.0
-0.0878360263741 -0.000604801663727 0.0
0.0229731491917 -0.307719702537 0.0
-0.0687380463711 0.239199568058 0.0
-0.0179853091664 -0.0178700546189 0.0
-0.0216146644551 0.0189143270114 0.0
0.258616587148 -0.00529007228312 0.0
-0.0472024490509 0.193030253751 0.0
0.0895693739215 0.130020576195 0.0
-0.17134290324 -0.366334863416 0.0
-0.0468782290333 -0.0818408672751 0.0
-0.0352531749815 0.0724732098429 0.0
-0.0519479324533 0.0122034015913 0.0
-0.0538570005041 -0.0151497054113 0.0
-0.176421365142 0.0419613119579 0.0
-0.140531060553 0.158210665243 0.0
-0.210273546416 -0.084997678629 0.0
-0.135788579108 0.0398153837812 0.0
-0.130565544186 0.157461364778 0.0
-0.237722295874 -0.113802860407 0.0
-0.132178530714 0.0906552824354 0.0
-0.15242807862 -0.00710551170251 0.0
0.338377981439 0.0577552452894 0.0
-0.0238473671644 0.0942893219752 0.0
-0.0763853890655 -0.20825505198 0.0
-0.0482158921038 -0.00270781180404 0.0
0.428538010816 -0.0589302279059 0.0
-0.0353964876294 0.201743530423 0.0
-0.0111978857212 -0.0241544476289 0.0
-0.0242457409135 0.00730639905208 0.0
-0.114872288209 -0.46334260344 0.0
0.1581704339 0.11128771456 0.0
-0.021625896391 -0.00846833479564 0.0
-0.0129289868272 0.0302770916348 0.0
-0.0244579475071 0.020255546073 0.0
-0.0913463057789 0.193584934859 0.0
-0.135375797194 -0.11862777354 0.0
-0.0945531337198 0.0269855406236 0.0
-0.0448492290373 0.171628488599 0.0
-0.23165553997 -0.237231260467 0.0
-0.0831014503722 0.094255782952 0.0
-0.104126085771 -0.0272331582209 0.0
0.0756770056146 -0.359870131892 0.0
-0.0659167852843 0.257835453198 0.0
-0.00139215151534 -0.00147331181023 0.0
-0.00308676736593 0.00300032604942 0.0
0.520085726628 0.0166058328378 0.0
-0.0166856045687 0.115835014174 0.0
-0.0249181577543 -0.0827760182028 0.0
-0.0364746097579 0.00227162633632 0.0
-0.153775828481 -0.320083754466 0.0
-0.0453451610813 0.201334868123 0.0
-0.0544325347632 -0.0328435507904 0.0
-0.0453746710013 0.0500039298637 0.0
0.046253691533 -0.122153400331 0.0
-0.0716913630362 0.230742453597 0.0
-0.0516301634586 -0.0559975007527 0.0
-0.052110567752 0.0282497731478 0.0
-0.181783707352 0.101804011873 0.0
-0.231195204006 -0.00817836883636 0.0
-0.164707631799 0.106984658379 0.0
-0.197960286497 -0.0124258081271 0.0
-0.205740205173 -0.069344692273 0.0
-0.113477108331 0.188863331254 0.0
-0.15143035861 -0.058399940892 0.0
-0.101572531949 0.0640052571967 0.0
0.607129412367 -0.00627437970855 0.0
-0.0140784532389 0.126801505969 0.0
-0.00904559525205 -0.0350251072182 0.0
-0.0243155350591 0.0029949902622 0.0
-0.0621423496069 -0.276178418439 0.0
-0.0258239691314 -0.00411410611189 0.0
0.417093601849 0.0469600608907 0.0
-0.00928077351237 0.043837808327 0.0
0.402008836242 -0.111089489809 0.0
-0.0507712732441 0.231610240073 0.0
-0.00306432588712 -0.00551751659729 0.0
-0.00856378239128 0.00389441355697 0.0
-0.0820450474694 -0.518362249499 0.0
-0.00604982609492 -0.00342280955727 0.0
0.116297929106 0.137825074023 0.0
-0.00469721834465 0.00959592097714 0.0
-0.0989979035541 0.115481913739 0.0
-0.116980289513 0.139903690021 0.0
-0.207916861282 -0.159962883447 0.0
-0.113034208641 0.00526686215829 0.0
0.181298220662 0.054265216402 0.0
-0.0502270423792 0.160681528736 0.0
-0.0868773624544 -0.152724082691 0.0
-0.0641441554295 0.00645094381769 0.0
0.0249815653255 0.125547044391 0.0
-0.0438570426583 0.105643613682 0.0
-0.152361686186 -0.287368492757 0.0
-0.0598973389238 -0.0113433986771 0.0
-0.171830503798 0.0484734031897 0.0
-0.16678918126 0.0179247756982 0.0
-0.174483605719 -0.0110749050346 0.0
-0.186343896669 0.0192065847802 0.0
-0.000207206103547 -1.67741103288e-05 0.0
0.000175786240362 0.000192225455181 0.0
-0.00119040780426 0.000728418972503 0.0
-0.000163382895072 0.000151996093505 0.0
0.37266335923 -0.148275359348 0.0
0.0972283513732 -0.356751740263 0.0
-0.05972231379 0.257660928965 0.0
-0.0143143799649 0.262985593943 0.0
-0.000136302398613 -0.000267468258688 0.0
-0.000779105633333 0.00121157942647 0.0
-0.0483979822688 -0.496521863719 0.0
0.136558700677 0.157438204873 0.0
-0.147185902748 0.0183012468135 0.0
-0.154199925048 0.0444132804665 0.0
-0.117817068782 0.141394204162 0.0
-0.0682276383402 0.146205277029 0.0
-0.0966898750541 0.166410857505 0.0
-0.234280883201 -0.142890770851 0.0
-0.230388053871 -0.192130551806 0.0
-0.242564881796 -0.159720143371 0.0
-0.124765201273 0.115258272189 0.0
-0.101330976476 0.120540782948 0.0
-0.10921130585 0.0983463443956 0.0
-0.133007316373 -0.000827644310408 0.0
-0.115200508198 -0.0100609960298 0.0
-0.131012898699 -0.0222887129407 0.0
-0.155080429502 0.13365362302 0.0
-0.178476080544 0.107972930707 0.0
-0.161601489826 0.135371844616 0.0
-0.15083037697 0.136444896298 0.0
-0.140298057431 0.158805423268 0.0
-0.229692610504 -0.0527332721973 0.0
-0.219680738513 -0.0114761380295 0.0
-0.206260316504 -0.0469807597008 0.0
-0.232992518914 -0.0976594845783 0.0
-0.240111583561 -0.0666340952141 0.0
-0.0343740867734 0.115257083708 0.0
-0.0104628291014 0.139087586015 0.0
-0.0940703462639 0.144591164666 0.0
-0.0793402489241 0.121809406409 0.0
-0.198560911083 -0.189098646137 0.0
-0.211538423477 -0.235490043033 0.0
-0.104287199202 0.00199574277376 0.0
-0.0964919436932 -0.0101887444624 0.0
-0.0672308463769 0.201246467541 0.0
-0.0778165719491 0.216636421714 0.0
-0.0614501181024 0.217880883421 0.0
0.108743830117 0.00323904373196 0.0
0.0185493455465 -0.0513008501428 0.0
0.154057679245 -0.0484831822966 0.0
-0.0690753493187 0.0189809869196 0.0
-0.0702086853741 0.0297508661135 0.0
-0.0538370250659 0.0196343169838 0.0
-0.081983743957 -0.10478513187 0.0
-0.082170438949 -0.0837081816631 0.0
-0.0510180155921 -0.0697960069021 0.0
-0.0799357536541 0.221522114433 0.0
-0.091566206713 0.209825758213 0.0
-0.0652863592692 -0.134755146848 0.0
-0.0897991528391 -0.0668321185108 0.0
-0.0655486090267 0.0407372865552 0.0
-0.0839084045205 0.0425605836638 0.0
-0.0758540632117 -0.0629437450331 0.0
-0.109121701661 -0.0815374209886 0.0
-0.187358762575 -0.373046800957 0.0
-0.202664647755 -0.287228319146 0.0
-0.208090229878 -0.322296303678 0.0
0.00830359871161 0.167025027643 0.0
-0.0414949240934 0.188073800237 0.0
0.0078565283214 0.159749414334 0.0
-0.0553248270128 -0.023342813087 0.0
-0.076650232781 -0.0343092986101 0.0
-0.0728434312043 -0.0224096635061 0.0
-0.0410860700225 0.0618651679086 0.0
-0.0604841322463 0.0692524860582 0.0
-0.0543951053875 0.0829873300752 0.0
-0.153520859969 0.0732703842364 0.0
-0.137087939493 0.0648196340008 0.0
0.646000995737 0.0160711939592 0.0
0.66769450767 0.0137516069416 0.0
-0.00532925143483 0.045543864615 0.0
-0.00591929482475 0.0583237324819 0.0
-0.020693575417 -0.127296143123 0.0
-0.0163461228608 -0.09163656856 0.0
-0.0222351253265 -0.00106119983061 0.0
-0.0242301535399 -0.000314253001091 0.0
-0.0207183233501 -0.152193261945 0.0
-0.0678173880914 -0.24780511633 0.0
-0.0169378018936 -0.001285504694 0.0
-0.034931025961 -0.00426788452232 0.0
0.661553314919 0.0153752776745 0.0
0.387826836416 0.0502187521839 0.0
-0.00361450976945 0.0310209531591 0.0
-0.0142380379757 0.0621222891785 0.0
-0.21199959157 -0.124501767737 0.0
-0.127934947307 0.019365791773 0.0
-0.200227201471 -0.197150386469 0.0
-0.148408347021 -0.222400838675 0.0
-0.0752363716065 0.197674459665 0.0
-0.0697293345472 0.21093100956 0.0
-0.0992418748207 -0.0466614496182 0.0
-0.0748018902057 -0.0472431258765 0.0
-0.0785594928942 0.0689539814081 0.0
-0.0621790892026 0.053717314836 0.0
-0.118581949893 0.174945959428 0.0
-0.124704120074 0.177579727294 0.0
-0.117484533575 0.0770574374112 0.0
-0.120412968859 0.0547994071088 0.0
-0.169942832189 0.0788563520973 0.0
-0.148283509394 0.100995827198 0.0
-0.199686415571 0.0736945731556 0.0
-0.185535018846 0.0806313668388 0.0
-0.204213253839 0.0220575553938 0.0
-0.216039084542 0.0309882179121 0.0
-0.1281197186 -0.305821835655 0.0
-0.11667466351 -0.348256710764 0.0
-0.0514097032163 -0.00849088768512 0.0
-0.0387825997264 -0.00856938559367 0.0
0.197299892204 0.0932993383147 0.0
0.228028613064 0.0876599030029 0.0
-0.0294372829154 0.0825368141831 0.0
-0.0200966438866 0.0597162677925 0.0
0.718687693519 -0.0149062545447 0.0
0.676011340523 -0.0258035908523 0.0
-0.00925242237992 0.112816505361 0.0
-0.0136588527676 0.13648700191 0.0
-0.00248010567062 -0.0111294924558 0.0
-0.00182110740267 -0.00649498007804 0.0
-0.0125190500817 0.00160717259659 0.0
-0.00935398669542 0.00173140571116 0.0
-0.0446824482733 -0.358976923615 0.0
-0.0381159666368 -0.284233394053 0.0
-0.00729249093048 -0.00190401122862 0.0
-0.0111737929617 -0.00201255419255 0.0
0.46409746525 0.042122335298 0.0
0.538214450316 0.0303716565583 0.0
-0.00275964666138 0.0120096797472 0.0
-0.00324726461555 0.0180905637965 0.0
0.450530727219 0.0327465005064 0.0
0.721268133247 0.00758540880916 0.0
-0.0189077982107 0.106119650665 0.0
-0.00500557415861 0.0640512193516 0.0
-0.0412283709863 -0.128007290301 0.0
-0.00935462762024 -0.0570409510784 0.0
-0.0418556455918 0.000739304733393 0.0
-0.0217968697839 0.000382823973611 0.0
-0.151297817589 -0.418838290776 0.0
-0.152082705608 -0.420741939073 0.0
0.106656225422 0.126557603215 0.0
0.00384427582557 0.173605402354 0.0
-0.0384179557032 -0.0135401354625 0.0
-0.037116134067 -0.019783944821 0.0
-0.0241554288421 0.0513254789484 0.0
-0.0286320491802 0.0426014365612 0.0
0.115039720603 0.0784518038579 0.0
0.250027961386 0.0628447076243 0.0
0.147529371398 0.091492104886 0.0
-0.0608957891504 0.154036410268 0.0
-0.0385729556582 0.133564588214 0.0
-0.0489585556117 0.127482238206 0.0
-0.126626291413 -0.184803473896 0.0
-0.0874547205391 -0.177128960061 0.0
-0.132198292148 -0.227499743118 0.0
-0.0769169270773 0.00444387605489 0.0
-0.0600519545189 0.00136135636887 0.0
-0.0700189239277 -0.00247823833283 0.0
-0.186947168759 -0.00439615467826 0.0
-0.139703787805 -0.0275185242338 0.0
-0.126384626861 0.0346979891166 0.0
-0.107303121429 0.194463679733 0.0
-0.118037656117 0.176704625288 0.0
-0.180357622455 -0.0730492423333 0.0
-0.147098424045 -0.086381689794 0.0
-0.179786559026 -0.10841475304 0.0
-0.102829447877 0.0465123116881 0.0
-0.116377717746 0.0343979423906 0.0
0.212098005315 -0.151486696624 0.0
0.197386086158 -0.0990681461634 0.0
0.0490777018287 -0.202777782587 0.0
-0.0631892194867 0.24292095504 0.0
-0.0589353667271 0.231035879096 0.0
-0.0705926977406 0.23920676728 0.0
-0.0162247868174 -0.0235166574706 0.0
-0.0291911135406 -0.042360704714 0.0
-0.0319912308756 -0.0345395418425 0.0
-0.0253056525251 0.0135535997531 0.0
-0.0384716770821 0.0170915644301 0.0
-0.036285688704 0.0246961102339 0.0
-0.174269135002 -0.107576624513 0.0
-0.0969328110457 0.200902171159 0.0
-0.121279474733 -0.0639093374484 0.0
-0.0910573859224 0.0591769618224 0.0
-0.208726741912 0.0206563275476 0.0
-0.226312771256 -0.0360631453598 0.0
-0.23749969458 -0.0989051984039 0.0
-0.178768196938 -0.0409590311258 0.0
-0.15290284113 -0.0325568327475 0.0
0.760549357394 0.00301945354907 0.0
-0.00433393122844 0.0683688334528 0.0
-0.00543635406193 -0.0350549521387 0.0
-0.0185550939819 0.000733403560321 0.0
0.0596058268887 0.121285364096 0.0
0.0161384699347 0.145244103611 0.0
-0.177327635815 -0.258268166453 0.0
-0.207179722928 -0.283321944311 0.0
-0.0593819099989 0.119647745891 0.0
-0.0623884662964 0.103625534222 0.0
-0.0789738883598 -0.00791901157412 0.0
-0.0818418779154 -0.0162691989974 0.0
0.416892588077 -0.0894745390875 0.0
0.646187834689 -0.0357988351449 0.0
-0.0431428578473 0.218856542242 0.0
-0.0188202188439 0.154921446019 0.0
-0.00586375980948 -0.0118104255798 0.0
-0.000974698354101 -0.00276728161169 0.0
-0.0148421047867 0.00575866276453 0.0
-0.00548405742836 0.00131770925454 0.0
-0.0451067074016 -0.403706304203 0.0
-0.0972358215372 -0.504120115143 0.0
-0.00348470218909 -0.00121166906803 0.0
-0.0116639362004 -0.00589012922522 0.0
0.424871923286 0.0528782742587 0.0
0.127873777434 0.126315446961 0.0
-0.00174587518171 0.00645114773543 0.0
-0.00806270664504 0.0172148171867 0.0
-0.0422551228319 0.202667592705 0.0
0.326309652788 -0.0388137137426 0.0
-0.038926652451 0.0111438469738 0.0
-0.0264002052624 -0.0500999358182 0.0
-0.0826240914462 -0.330436677853 0.0
-0.108558946148 -0.448839178612 0.0
-0.05610293437 0.217789838264 0.0
-0.00982515040361 0.187385967256 0.0
-0.0348474857818 -0.0270229111084 0.0
-0.0220362269872 -0.014405772375 0.0
-0.0329107245323 0.0334385104858 0.0
-0.018939288907 0.0267536260499 0.0
-0.000576502687693 -0.000909813715931 0.0
0.560831050177 -0.0625380637283 0.0
-0.00292935955251 0.00105435728957 0.0
-0.032648568183 0.195024570584 0.0
-0.0530333882634 -0.464184401647 0.0
-0.00129102285714 -0.000742481271482 0.0
0.320183243316 0.0840972075637 0.0
-0.00122681838121 0.00319263612967 0.0
0.323232906921 0.0371392108244 0.0
-0.0338592711802 0.145144236278 0.0
-0.0571451226618 -0.127197409379 0.0
-0.0529002524818 0.0042333008421 0.0
-0.00262826479164 -0.0035900570287 0.0
-0.0062667946303 0.00406813375961 0.0
0.255909769343 -0.199223092121 0.0
-0.0719775932622 0.261455562185 0.0
-0.046940726499 -0.489563625011 0.0
-0.00366919303104 -0.00297469381686 0.0
0.00506201874112 0.195466197202 0.0
-0.00456208791859 0.00646447502499 0.0
-0.066155025406 -0.22309072536 0.0
-0.0703689896976 0.22551263434 0.0
-0.0523892047265 -0.0434596171331 0.0
-0.0487672416552 0.0383142691073 0.0
-0.0704374818734 0.0780723067711 0.0
-0.137840652345 0.078903353397 0.0
-0.106946755077 0.165391521559 0.0
-0.130825247008 0.152758415744 0.0
-0.184285667414 -0.146386864139 0.0
-0.109888439282 0.0171456688954 0.0
0.141617884631 0.103756024639 0.0
-0.041810016658 0.105200311566 0.0
0.0777382919181 0.12873788382 0.0
-0.0450121636108 0.0922780131634 0.0
-0.144886679167 -0.275206370202 0.0
-0.0640823652817 -0.00749345105362 0.0
-0.178736868 -0.31857998132 0.0
-0.0655313987978 -0.0137232656306 0.0
0.770270913563 -0.00580279455325 0.0
0.536485479474 -0.0217186737829 0.0
-0.00545648680038 0.0861907499596 0.0
-0.0213521552615 0.15937145357 0.0
0.30564847705 0.0697559955631 0.0
0.434137692752 -0.00769029511477 0.0
-0.0282883958341 0.167056183981 0.0
-0.0886033210082 -0.36566660365 0.0
-0.0110807486052 0.0384404757813 0.0
-0.0250484226423 -0.00598281938047 0.0
0.630569617452 0.0186348305541 0.0
-0.0255929658895 -0.199478715211 0.0
-0.00307690876361 0.022895509915 0.0
-0.0135213773596 -0.00154651851314 0.0
-0.00254708021885 -0.0149687808168 0.0
-0.0105446195458 -0.0309780155759 0.0
-0.0135479872291 0.00109354031653 0.0
-0.0257048420281 0.00470818496078 0.0
-0.0229188913562 -0.0566727772549 0.0
-0.037169544409 0.00662684459351 0.0
0.0156504860225 0.0797354600615 0.0
-0.0837529660826 0.166285535486 0.0
-0.156419582369 -0.167998678485 0.0
-0.0932870915484 0.0106647030489 0.0
-0.15006873597 0.110632988672 0.0
-0.18245702986 0.0709162707338 0.0
-0.140938377344 0.127198095479 0.0
0.213224837832 -0.196227574354 0.0
-0.0698944217839 0.252867101265 0.0
-0.0649749395597 -0.460645954934 0.0
-0.00810516550038 -0.0114200415083 0.0
-0.0199602743798 0.200078652153 0.0
-0.014587746012 0.00916425543013 0.0
-0.0110108643113 -0.00841865991497 0.0
-0.011117813301 0.0150547182396 0.0
0.214560876934 0.0287494295426 0.0
0.0933556636971 0.0491059980872 0.0
-0.0505932344411 0.177470176869 0.0
-0.0689863524337 0.179475601084 0.0
-0.111020026965 -0.143712174163 0.0
-0.0704170959818 -0.118137329841 0.0
-0.0616114741842 0.0102575874519 0.0
-0.0780612878597 0.0132082299235 0.0
-0.0936400699741 0.18654709541 0.0
-0.225313913435 -0.148930294117 0.0
-0.0976286246035 0.0784805047135 0.0
-0.126248653667 -0.0427934778913 0.0
0.0573527649214 -0.340601414199 0.0
-0.0718781611383 0.247323100644 0.0
-0.00667231140598 -0.0070519824926 0.0
-0.0098357560067 0.00923562145942 0.0
-0.209075600026 0.0508538347322 0.0
0.570113301557 0.00386025974794 0.0
0.784089074905 -0.00119810248904 0.0
-0.0150643025088 0.123630494747 0.0
-0.00417203186883 0.0726980681601 0.0
0.374732963863 0.0144691464893 0.0
-0.0315478938789 0.158702583455 0.0
-0.0152847499556 -0.0535929593428 0.0
-0.00322792143852 -0.0215686668785 0.0
-0.0306930292364 0.00299269209067 0.0
-0.0152536408265 0.000848675640564 0.0
-0.0380582726657 -0.0880030917602 0.0
-0.0461607243359 0.00625562656979 0.0
-0.187835788785 0.0515325881065 0.0
-0.170445330774 0.0329030966098 0.0
-0.176640797459 0.0183880076579 0.0
-0.179515668212 0.0342121775267 0.0
-0.171169635799 0.00354786171225 0.0
-0.181830120583 0.00334766102997 0.0
-0.160712220733 0.00435342853969 0.0
-0.16317194716 -0.0094370472589 0.0
-0.186172161226 -0.0120435485166 0.0
-0.192487182509 0.00366496380677 0.0
9.53863512025e-05 0.000256477318151 0.0
0.000103548559008 0.000103876793056 0.0
4.07188827023e-05 0.000354570440691 0.0
4.94534555771e-06 0.000170058070079 0.0
-2.46332086672e-05 0.000337272093455 0.0
-0.000642309483785 -0.000647038714297 0.0
-0.000219613948138 -0.00022037077607 0.0
0.000100425574787 -5.16298395213e-06 0.0
8.09471428195e-05 -8.37549844759e-05 0.0
-3.96231519781e-05 9.31536275279e-05 0.0
-0.00056295135627 0.000451608445001 0.0
-0.000352870706231 0.000178141804439 0.0
-0.00211571657256 0.00166992344447 0.0
-0.00115208391621 0.00112514969031 0.0
0.246770091262 -0.18616793847 0.0
0.0561995321998 -0.340472757775 0.0
0.494539617604 -0.089129981166 0.0
0.245948896049 -0.233826648942 0.0
0.618300631949 -0.0500368696436 0.0
0.191360447438 -0.260038623536 0.0
0.0743900146953 -0.367356925423 0.0
-0.041122094711 0.299393608582 0.0
-0.0259454701241 0.261155190641 0.0
-0.0371355900653 0.236397348643 0.0
-0.068178748878 0.276574203639 0.0
-0.026625910371 0.185550116898 0.0
-0.0743361412846 0.276193944311 0.0
-0.0605261175202 0.265926611209 0.0
0.000246742309376 9.9032236353e-05 0.0
0.00012037360067 -6.43047264831e-06 0.0
0.000318098348064 3.61481617126e-05 0.0
-0.000697189246475 -0.00073166650816 0.0
0.000246958636722 -4.67385398861e-05 0.0
1.17868573215e-06 -0.000110402820427 0.0
-0.000472216265548 0.000553666967458 0.0
-9.98992659419e-05 2.61220689191e-05 0.0