# vtk DataFile Version 2.0
2D Simulation Python
ASCII
DATASET UNSTRUCTURED_GRID
FIELD FieldData 1
NODES 1 2 int
2017 3872

POINTS 2017 double
0.0 0.0 0.0
1.0 0.0 0.0
1.0 1.0 0.0
0.0 1.0 0.0
0.02499999999995297 0.0 0.0
0.04999999999989927 0.0 0.0
0.07499999999985263 0.0 0.0
0.09999999999981467 0.0 0.0
0.1249999999997765 0.0 0.0
0.1499999999997036 0.0 0.0
0.1749999999996308 0.0 0.0
0.1999999999995579 0.0 0.0
0.224999999999485 0.0 0.0
0.2499999999994121 0.0 0.0
0.2749999999993393 0.0 0.0
0.2999999999992664 0.0 0.0
0.3249999999991935 0.0 0.0
0.3499999999991207 0.0 0.0
0.3749999999990478 0.0 0.0
0.3999999999989749 0.0 0.0
0.4249999999989048 0.0 0.0
0.4499999999988346 0.0 0.0
0.4749999999987644 0.0 0.0
0.4999999999986943 0.0 0.0
0.5249999999987575 0.0 0.0
0.5499999999988205 0.0 0.0
0.5749999999988837 0.0 0.0
0.5999999999989468 0.0 0.0
0.6249999999990127 0.0 0.0
0.6499999999990784 0.0 0.0
0.6749999999991443 0.0 0.0
0.69999999999921 0.0 0.0
0.7249999999992759 0.0 0.0
0.7499999999993416 0.0 0.0
0.7749999999994075 0.0 0.0
0.7999999999994734 0.0 0.0
0.8249999999995392 0.0 0.0
0.8499999999996051 0.0 0.0
0.8749999999996709 0.0 0.0
0.8999999999997368 0.0 0.0
0.9249999999998026 0.0 0.0
0.9499999999998684 0.0 0.0
0.9749999999999343 0.0 0.0
1.0 0.02499999999995297 0.0
1.0 0.04999999999989927 0.0
1.0 0.07499999999985263 0.0
1.0 0.09999999999981467 0.0
1.0 0.1249999999997765 0.0
1.0 0.1499999999997036 0.0
1.0 0.1749999999996308 0.0
1.0 0.1999999999995579 0.0
1.0 0.224999999999485 0.0
1.0 0.2499999999994121 0.0
1.0 0.2749999999993393 0.0
1.0 0.2999999999992664 0.0
1.0 0.3249999999991935 0.0
1.0 0.3499999999991207 0.0
1.0 0.3749999999990478 0.0
1.0 0.3999999999989749 0.0
1.0 0.4249999999989048 0.0
1.0 0.4499999999988346 0.0
1.0 0.4749999999987644 0.0
1.0 0.4999999999986943 0.0
1.0 0.5249999999987575 0.0
1.0 0.5499999999988205 0.0
1.0 0.5749999999988837 0.0
1.0 0.5999999999989468 0.0
1.0 0.6249999999990127 0.0
1.0 0.6499999999990784 0.0
1.0 0.6749999999991443 0.0
1.0 0.69999999999921 0.0
1.0 0.7249999999992759 0.0
1.0 0.7499999999993416 0.0
1.0 0.7749999999994075 0.0
1.0 0.7999999999994734 0.0
1.0 0.8249999999995392 0.0
1.0 0.8499999999996051 0.0
1.0 0.8749999999996709 0.0
1.0 0.8999999999997368 0.0
1.0 0.9249999999998026 0.0
1.0 0.9499999999998684 0.0
1.0 0.9749999999999343 0.0
0.9749999999998877 1.0 0.0
0.9499999999998356 1.0 0.0
0.9249999999996992 1.0 0.0
0.8999999999995836 1.0 0.0
0.8749999999997078 1.0 0.0
0.8499999999998515 1.0 0.0
0.8249999999999216 1.0 0.0
0.7999999999999998 1.0 0.0
0.77500000000021 1.0 0.0
0.7500000000003858 1.0 0.0
0.7250000000005448 1.0 0.0
0.7000000000006934 1.0 0.0
0.6750000000009306 1.0 0.0
0.6500000000010593 1.0 0.0
0.6250000000012101 1.0 0.0
0.6000000000013869 1.0 0.0
0.5750000000015277 1.0 0.0
0.5500000000016854 1.0 0.0
0.5250000000018821 1.0 0.0
0.5000000000020587 1.0 0.0
0.4750000000019601 1.0 0.0
0.4500000000018616 1.0 0.0
0.425000000001763 1.0 0.0
0.4000000000016644 1.0 0.0
0.3750000000015603 1.0 0.0
0.3500000000014563 1.0 0.0
0.3250000000013522 1.0 0.0
0.3000000000012483 1.0 0.0
0.2750000000011442 1.0 0.0
0.2500000000010403 1.0 0.0
0.2250000000009362 1.0 0.0
0.2000000000008322 1.0 0.0
0.1750000000007281 1.0 0.0
0.1500000000006241 1.0 0.0
0.12500000000052 1.0 0.0
0.100000000000416 1.0 0.0
0.07500000000031193 1.0 0.0
0.05000000000020799 1.0 0.0
0.02500000000010394 1.0 0.0
0.0 0.9749999999998877 0.0
0.0 0.9499999999998356 0.0
0.0 0.9249999999996992 0.0
0.0 0.8999999999995836 0.0
0.0 0.8749999999997078 0.0
0.0 0.8499999999998515 0.0
0.0 0.8249999999999216 0.0
0.0 0.7999999999999998 0.0
0.0 0.77500000000021 0.0
0.0 0.7500000000003858 0.0
0.0 0.7250000000005448 0.0
0.0 0.7000000000006934 0.0
0.0 0.6750000000009306 0.0
0.0 0.6500000000010593 0.0
0.0 0.6250000000012101 0.0
0.0 0.6000000000013869 0.0
0.0 0.5750000000015277 0.0
0.0 0.5500000000016854 0.0
0.0 0.5250000000018821 0.0
0.0 0.5000000000020587 0.0
0.0 0.4750000000019601 0.0
0.0 0.4500000000018616 0.0
0.0 0.425000000001763 0.0
0.0 0.4000000000016644 0.0
0.0 0.3750000000015603 0.0
0.0 0.3500000000014563 0.0
0.0 0.3250000000013522 0.0
0.0 0.3000000000012483 0.0
0.0 0.2750000000011442 0.0
0.0 0.2500000000010403 0.0
0.0 0.2250000000009362 0.0
0.0 0.2000000000008322 0.0
0.0 0.1750000000007281 0.0
0.0 0.1500000000006241 0.0
0.0 0.12500000000052 0.0
0.0 0.100000000000416 0.0
0.0 0.07500000000031193 0.0
0.0 0.05000000000020799 0.0
0.0 0.02500000000010394 0.0
0.499475559262911 0.49733817513189504 0.0
0.7050969024672236 0.7038532372424218 0.0
0.2945901692568507 0.7065571304551173 0.0
0.7042605511371729 0.2947329338818596 0.0
0.2944399248553856 0.29451319399767095 0.0
0.4938420331702748 0.7871909590719653 0.0
0.21359863203681972 0.4949808732599596 0.0
0.7895261794968331 0.5061408539158909 0.0
0.5061181277210005 0.21037258962369415 0.0
0.8289033628673366 0.8291206886456077 0.0
0.1708469941104095 0.8289229942067222 0.0
0.829122031533557 0.17109531510206083 0.0
0.17111604908440944 0.17086117524581923 0.0
0.6411639827187721 0.8530393548135381 0.0
0.14735990282682118 0.6420151923760986 0.0
0.35988508942830355 0.847004621754407 0.0
0.8471860236774795 0.639971374323324 0.0
0.8531096031747767 0.35881945357386924 0.0
0.15315037738230716 0.35998838486130147 0.0
0.358810551304107 0.14685030838763008 0.0
0.6399759736617123 0.15280517460030107 0.0
0.5657118015177651 0.6418343105513475 0.0
0.3702475691364918 0.5811173143732409 0.0
0.647465972120427 0.45330922266153684 0.0
0.43390061403888847 0.3510347732616804 0.0
0.4234897123627652 0.6538587162893692 0.0
0.6660387719153733 0.5473227157168399 0.0
0.36245338527048787 0.42536479894014356 0.0
0.5387742992181301 0.34631192625315566 0.0
0.45891201101023976 0.8930419175161366 0.0
0.10736701320905928 0.45940345962350554 0.0
0.8931773262591631 0.5410720386692545 0.0
0.5410729204069248 0.10681863426604293 0.0
0.7386975983904491 0.9035957043328893 0.0
0.09639458328462397 0.7387596988579823 0.0
0.9035976167021256 0.26130131340660656 0.0
0.261303196036194 0.09639732159683387 0.0
0.9018153073126154 0.737579460148221 0.0
0.26239427748027133 0.901798461255267 0.0
0.737579925402549 0.09818383649237736 0.0
0.0982285732587932 0.2624097077718782 0.0
0.6056871185603857 0.7447499680927023 0.0
0.25550465289505 0.6081133865165902 0.0
0.7465167200868591 0.3946224800064208 0.0
0.39384971763751203 0.25237586126242306 0.0
0.3924077892482704 0.7453658083651618 0.0
0.7469478446682001 0.6055752923699336 0.0
0.2559980007279122 0.39305740151861346 0.0
0.6055168573505693 0.2533380971165539 0.0
0.9104861577576799 0.910512921401407 0.0
0.08948604693011447 0.9104863789546558 0.0
0.9105129229152336 0.08951384071217075 0.0
0.08951439022389032 0.08948680966645994 0.0
0.5668068842043881 0.9184076232115317 0.0
0.08204690405590108 0.5672481585651569 0.0
0.9184159779235355 0.4331911457623314 0.0
0.43319127933117735 0.08158277844739534 0.0
0.7928845691952986 0.7207379557530306 0.0
0.2789865586756975 0.7929390414964583 0.0
0.7207744185719815 0.2070781171590184 0.0
0.2072971935195554 0.27908004294721966 0.0
0.7213626300435856 0.7945561097011926 0.0
0.20536175023233924 0.7219593369566705 0.0
0.7946297056568027 0.2785993577019743 0.0
0.27858965827114585 0.2052423294988775 0.0
0.48143535767008694 0.5873527073532542 0.0
0.5811336554218043 0.541011259181374 0.0
0.41047293587125816 0.5019140195744491 0.0
0.5612299042112097 0.4309959236858929 0.0
0.6465329917972248 0.6347169155184555 0.0
0.34881300009027694 0.6574546318781287 0.0
0.6372394615879042 0.3553092709181802 0.0
0.34587428359345557 0.3475659198110296 0.0
0.6501093871608354 0.9337757326591962 0.0
0.06627644690404341 0.6501827072644071 0.0
0.9337763597627202 0.34989048046057897 0.0
0.3498905304493748 0.06622321280667917 0.0
0.9282178836409478 0.644024363623176 0.0
0.6440243933265902 0.07178200550393393 0.0
0.3559656342027112 0.9282045336499943 0.0
0.0718242743967158 0.35600372379572 0.0
0.8309456108933448 0.9257452583116693 0.0
0.07425234410706455 0.8309469205409703 0.0
0.9257452670199302 0.16905438169225323 0.0
0.16905493016395798 0.07425373693771026 0.0
0.925411158036288 0.830925957037489 0.0
0.8309259622200833 0.07458883503615277 0.0
0.16907110184737656 0.9254100194573303 0.0
0.07459303797007649 0.16907320652798197 0.0
0.4994497716282873 0.6951660091142066 0.0
0.3068568712974233 0.5027448029904495 0.0
0.7154379215631829 0.4983202555115587 0.0
0.49682413429834565 0.28464791253399946 0.0
0.5543834472571074 0.8377741642074432 0.0
0.16342419165956457 0.5560271816113402 0.0
0.8380746637771362 0.44561044185164045 0.0
0.4456088882570035 0.16188029496877232 0.0
0.42716376791075217 0.8174017936281011 0.0
0.1829033691591463 0.42744066551857807 0.0
0.8180234793570906 0.5726558455427702 0.0
0.5726599413408329 0.18196166588002705 0.0
0.4658382293336628 0.42586842083790144 0.0
0.5020587259693546 0.3866747933245478 0.0
0.5517283317470997 0.3864709802692513 0.0
0.5152384921946177 0.42603373847518156 0.0
0.9560843471866907 0.09325715899020828 0.0
0.9535463246608105 0.046457817135342125 0.0
0.09325721028916706 0.043915572875542194 0.0
0.04645785795419752 0.04645367359971077 0.0
0.9067428409479307 0.9560843471041839 0.0
0.9535421828520876 0.9535463246483853 0.0
0.04391537635622998 0.9067429340789233 0.0
0.04645357498770461 0.9535422306738006 0.0
0.9067494356834269 0.04393979031984689 0.0
0.04394003166084484 0.09325058407830142 0.0
0.9560602096013366 0.9067494356260517 0.0
0.09325032567333326 0.9560602609571429 0.0
0.4862595504298914 0.3499183869727787 0.0
0.4498580519844422 0.3890109794117216 0.0
0.4577591778721526 0.6732523316866295 0.0
0.453074255487004 0.7200484242183893 0.0
0.41471148454735796 0.6928362688305307 0.0
0.691063699041008 0.5234913163362922 0.0
0.7281992781400037 0.54324367966215 0.0
0.6983920011064869 0.5738468336222186 0.0
0.3315419533853716 0.4616814825999963 0.0
0.28199762581643706 0.45454129562947343 0.0
0.3120893048801259 0.41599929347042847 0.0
0.5192435610856783 0.31157240508014006 0.0
0.5426284210370399 0.27238303995731955 0.0
0.5723464005132175 0.3044846830851564 0.0
[...]
POINT_DATA 2017
VECTORS vector double
0.0 0.0 0.0
0.0 0.0 0.0
1.0 0.0 0.0
1.0 0.0 0.0
0.0 0.0 0.0
0.0 0.0 0.0
0.0 0.0 0.0
0.0 0.0 0.0
0.0 0.0 0.0
0.0 0.0 0.0
0.0 0.0 0.0
0.0 0.0 0.0
0.0 0.0 0.0
0.0 0.0 0.0
0.0 0.0 0.0
0.0 0.0 0.0
0.0 0.0 0.0
0.0 0.0 0.0
0.0 0.0 0.0
0.0 0.0 0.0
0.0 0.0 0.0
0.0 0.0 0.0
0.0 0.0 0.0
0.0 0.0 0.0
0.0 0.0 0.0
0.0 0.0 0.0
0.0 0.0 0.0
0.0 0.0 0.0
0.0 0.0 0.0
0.0 0.0 0.0
0.0 0.0 0.0
0.0 0.0 0.0
0.0 0.0 0.0
0.0 0.0 0.0
0.0 0.0 0.0
0.0 0.0 0.0
0.0 0.0 0.0
0.0 0.0 0.0
0.0 0.0 0.0
0.0 0.0 0.0
0.0 0.0 0.0
0.0 0.0 0.0
0.0 0.0 0.0
0.0 0.0 0.0
0.0 0.0 0.0
0.0 0.0 0.0
0.0 0.0 0.0
0.0 0.0 0.0
0.0 0.0 0.0
0.0 0.0 0.0
0.0 0.0 0.0
0.0 0.0 0.0
0.0 0.0 0.0
0.0 0.0 0.0
0.0 0.0 0.0
0.0 0.0 0.0
0.0 0.0 0.0
0.0 0.0 0.0
0.0 0.0 0.0
0.0 0.0 0.0
0.0 0.0 0.0
0.0 0.0 0.0
0.0 0.0 0.0
0.0 0.0 0.0
0.0 0.0 0.0
0.0 0.0 0.0
0.0 0.0 0.0
0.0 0.0 0.0
0.0 0.0 0.0
0.0 0.0 0.0
0.0 0.0 0.0
0.0 0.0 0.0
0.0 0.0 0.0
0.0 0.0 0.0
0.0 0.0 0.0
0.0 0.0 0.0
0.0 0.0 0.0
0.0 0.0 0.0
0.0 0.0 0.0
0.0 0.0 0.0
0.0 0.0 0.0
0.0 0.0 0.0
1.0 0.0 0.0
1.0 0.0 0.0
1.0 0.0 0.0
1.0 0.0 0.0
1.0 0.0 0.0
1.0 0.0 0.0
1.0 0.0 0.0
1.0 0.0 0.0
1.0 0.0 0.0
1.0 0.0 0.0
1.0 0.0 0.0
1.0 0.0 0.0
1.0 0.0 0.0
1.0 0.0 0.0
1.0 0.0 0.0
1.0 0.0 0.0
1.0 0.0 0.0
1.0 0.0 0.0
1.0 0.0 0.0
1.0 0.0 0.0
1.0 0.0 0.0
1.0 0.0 0.0
1.0 0.0 0.0
1.0 0.0 0.0
1.0 0.0 0.0
1.0 0.0 0.0
1.0 0.0 0.0
1.0 0.0 0.0
1.0 0.0 0.0
1.0 0.0 0.0
1.0 0.0 0.0
1.0 0.0 0.0
1.0 0.0 0.0
1.0 0.0 0.0
1.0 0.0 0.0
1.0 0.0 0.0
1.0 0.0 0.0
1.0 0.0 0.0
1.0 0.0 0.0
0.0 0.0 0.0
0.0 0.0 0.0
0.0 0.0 0.0
0.0 0.0 0.0
0.0 0.0 0.0
0.0 0.0 0.0
0.0 0.0 0.0
0.0 0.0 0.0
0.0 0.0 0.0
0.0 0.0 0.0
0.0 0.0 0.0
0.0 0.0 0.0
0.0 0.0 0.0
0.0 0.0 0.0
0.0 0.0 0.0
0.0 0.0 0.0
0.0 0.0 0.0
0.0 0.0 0.0
0.0 0.0 0.0
0.0 0.0 0.0
0.0 0.0 0.0
0.0 0.0 0.0
0.0 0.0 0.0
0.0 0.0 0.0
0.0 0.0 0.0
0.0 0.0 0.0
0.0 0.0 0.0
0.0 0.0 0.0
0.0 0.0 0.0
0.0 0.0 0.0
0.0 0.0 0.0
0.0 0.0 0.0
0.0 0.0 0.0
0.0 0.0 0.0
0.0 0.0 0.0
0.0 0.0 0.0
0.0 0.0 0.0
0.0 0.0 0.0
0.0 0.0 0.0
-0.193813609188 0.0526277034205 0.0
-0.147737823963 -0.144480858268 0.0
-0.0898410077431 0.209465812812 0.0
-0.0906549117211 -0.0603049476078 0.0
-0.0727830411133 0.052479303532 0.0
0.0421771019483 0.107696220538 0.0
-0.071725859018 0.139967008759 0.0
-0.170323407458 -0.212977721511 0.0
-0.087410196727 -0.00057170065799 0.0
0.0222478735494 -0.307818215613 0.0
-0.0700292752687 0.238219078161 0.0
-0.0179481630856 -0.017757918044 0.0
-0.0215508235406 0.018756877242 0.0
0.257936688543 -0.00518312873824 0.0
-0.0476431177559 0.192080849178 0.0
0.0892886683006 0.129143197314 0.0
-0.170940302673 -0.364303641175 0.0
-0.0466343726779 -0.0810316220821 0.0
-0.0351447066393 0.0717597150166 0.0
-0.0517535683646 0.0120838715478 0.0
-0.053655961811 -0.0149701589 0.0
-0.176998051704 0.041983026242 0.0
-0.140786766523 0.156796422478 0.0
-0.209542022325 -0.0840365287982 0.0
-0.135171210034 0.0393175865247 0.0
-0.131225800083 0.156421020214 0.0
-0.237142093075 -0.112790993458 0.0
-0.131769862668 0.0895737588451 0.0
-0.151682285294 -0.00698933315439 0.0
0.338325017113 0.0574578141482 0.0
-0.0238496285395 0.0934714631859 0.0
-0.0760907441672 -0.20650803779 0.0
-0.0480789558411 -0.00266384155596 0.0
0.427972355438 -0.0589420021502 0.0
-0.0361308178218 0.201909854315 0.0
-0.0111593318708 -0.0240227100852 0.0
-0.024181118798 0.00724622456491 0.0
-0.114496202761 -0.461464419468 0.0
0.159016571815 0.110181898791 0.0
-0.0215932990128 -0.00839612483572 0.0
-0.0128878939138 0.030015836521 0.0
-0.0251947401336 0.0204265760227 0.0
-0.0917662242294 0.192031763076 0.0
-0.134851093775 -0.117296846936 0.0
-0.0941839104918 0.0266680183451 0.0
-0.0455698443483 0.170594415338 0.0
-0.231504721401 -0.235805145029 0.0
-0.0829070745594 0.0932074660477 0.0
-0.103687807491 -0.0268741647864 0.0
0.0729077217226 -0.357603709074 0.0
-0.0711395212296 0.25475672479 0.0
-0.00140556175542 -0.0014999898057 0.0
-0.00308312965348 0.00299069125219 0.0
0.51977179469 0.0166258391635 0.0
-0.016776178963 0.115135022431 0.0
-0.0247869715224 -0.0820210314507 0.0
-0.0363593026757 0.00225778382739 0.0
-0.154120305693 -0.319347496586 0.0
-0.0460927005797 0.200052636735 0.0
-0.0542032938061 -0.0324833834046 0.0
-0.0452020780518 0.0494921769314 0.0
0.0454102130746 -0.121999055852 0.0
-0.0725978402353 0.229632515892 0.0
-0.0513811141247 -0.0554208656733 0.0
-0.0519074753429 0.0279576417378 0.0
-0.182071310912 0.101133686352 0.0
-0.231081509038 -0.00794265192718 0.0
-0.164492862868 0.105876939087 0.0
-0.19723742188 -0.0122171391077 0.0
-0.2061563713 -0.0687723927492 0.0
-0.114144627445 0.187433528285 0.0
-0.150690202328 -0.0576608398151 0.0
-0.101032327854 0.0632208095696 0.0
0.606513694702 -0.00621654270675 0.0
-0.0142527628312 0.126472404123 0.0
-0.00898882833998 -0.0347633879124 0.0
-0.024239926986 0.00297114993594 0.0
-0.0618274997262 -0.274307471359 0.0
-0.0257645126043 -0.00406906701074 0.0
0.417446466966 0.0465734555472 0.0
-0.00924686427263 0.0434374816246 0.0
0.401086712742 -0.111089889576 0.0
-0.052977881316 0.233431513031 0.0
-0.00306846397031 -0.00554563419888 0.0
-0.00854800088119 0.00387103706748 0.0
-0.0823610898222 -0.516992845297 0.0
-0.00607273911931 -0.00341883154172 0.0
0.118391228243 0.135178306309 0.0
-0.00468257373012 0.00953669058078 0.0
-0.0998344021291 0.115051301451 0.0
-0.116915331644 0.138435418264 0.0
-0.206984283326 -0.158436805473 0.0
-0.112314013036 0.00521951147988 0.0
0.18028687229 0.0542024319076 0.0
-0.0503787114988 0.159462715564 0.0
-0.0863293956203 -0.151212801878 0.0
-0.0638334278568 0.00639709939558 0.0
0.0235088111867 0.124869683435 0.0
-0.0436295074395 0.104595367455 0.0
-0.150971318614 -0.285288192366 0.0
-0.0594090371916 -0.0111870730804 0.0
-0.171216392742 0.0479301188016 0.0
-0.166065893069 0.0177337872635 0.0
-0.173710815782 -0.0108985941741 0.0
-0.185652933527 0.0190345224481 0.0
-0.000212639947595 -4.47674426359e-05 0.0
0.000172862732074 0.000177073618142 0.0
-0.0011893612317 0.000729241607939 0.0
-0.000163559639484 0.000157702765686 0.0
0.374795812805 -0.14473539712 0.0
0.106307904178 -0.325449640355 0.0
-0.0666360118019 0.264463499566 0.0
-0.0128962170868 0.238365180594 0.0
-0.000143986815944 -0.000281973262387 0.0
-0.000778531542604 0.00121459033018 0.0
-0.0515533514376 -0.495268411114 0.0
0.145220478639 0.147251054551 0.0
-0.146485152146 0.0180867889951 0.0
-0.153560765651 0.0438755780687 0.0
-0.118575267324 0.1406285033 0.0
-0.0690897683853 0.145486601324 0.0
-0.0974982242064 0.16538686887 0.0
-0.233725413988 -0.141596132839 0.0
-0.229898589528 -0.190564172036 0.0
-0.242353173868 -0.158510750055 0.0
-0.124517129266 0.113955662929 0.0
-0.10115256302 0.119221478053 0.0
-0.108896330311 0.0971995741252 0.0
-0.132312862205 -0.000796358502266 0.0
-0.114599218386 -0.00991151837444 0.0
-0.130346282171 -0.0219822797519 0.0
-0.15510469961 0.132360274214 0.0
-0.178462632494 0.107024536582 0.0
-0.161843093183 0.134262373786 0.0
-0.151332725359 0.135546640478 0.0
-0.140756102759 0.157578933376 0.0
-0.229156117142 -0.0521142269304 0.0
-0.219146288354 -0.0112546688049 0.0
-0.205529822396 -0.0463915733963 0.0
-0.232415606589 -0.0966665388111 0.0
-0.239850922594 -0.0659478436956 0.0
-0.0352738076947 0.114875073449 0.0
-0.01132067455 0.138437727047 0.0
-0.0940501346438 0.14313962755 0.0
-0.0792163202178 0.120543452169 0.0
-0.197889466001 -0.187355737166 0.0
-0.210998012429 -0.233652788028 0.0
-0.103748282631 0.00199357621928 0.0
-0.0960020366192 -0.0100390058265 0.0
-0.0677070904129 0.199945916695 0.0
-0.0784984386133 0.21527001122 0.0
-0.0621379310513 0.216861303203 0.0
0.107936218271 0.00339053576946 0.0
0.0176900224141 -0.0510547503229 0.0
0.153268035097 -0.0483393215046 0.0
-0.0687873921965 0.0187773502371 0.0
-0.0699139248404 0.0294192265761 0.0
-0.0536302267648 0.0194332655519 0.0
-0.081576010693 -0.10365962972 0.0
-0.0817597470315 -0.0827735329411 0.0
-0.0507620931848 -0.0690870186865 0.0
-0.0807886649232 0.220151405648 0.0
-0.0922523125851 0.208319943796 0.0
-0.0661162118383 -0.134416207108 0.0
-0.0906319460051 -0.0664601491605 0.0
-0.0652706802366 0.0402865982159 0.0
-0.0835379387336 0.0420593121964 0.0
-0.075464250059 -0.0622294345056 0.0
-0.108567732982 -0.0805759433413 0.0
-0.187243884776 -0.371592266519 0.0
-0.202788682097 -0.286105180788 0.0
-0.207826664877 -0.320596694126 0.0
0.00781965822635 0.165890561309 0.0
-0.0422695414618 0.186851007602 0.0
0.00719454844292 0.158748660742 0.0
-0.0551063206917 -0.0230761690399 0.0
-0.0762909532957 -0.0338914891579 0.0
-0.072513013516 -0.0221302437711 0.0
-0.0409417147977 0.0612394885459 0.0
-0.0602665462412 0.0685037815203 0.0
-0.0542267624643 0.0821209269907 0.0
-0.153009994791 0.0724015073134 0.0
-0.136546178014 0.0640184009271 0.0
0.646103229751 0.0159578955149 0.0
0.667648719987 0.0136990820732 0.0
-0.00532313568193 0.0451437525229 0.0
-0.00592463616629 0.0578531604036 0.0
-0.0205953380125 -0.126249491878 0.0
-0.0162683560107 -0.090827627289 0.0
-0.0221592354118 -0.00104640554324 0.0
-0.0241428110364 -0.000304180120658 0.0
-0.0206133228674 -0.151051912476 0.0
-0.0675273520499 -0.245957008846 0.0
-0.0168871579961 -0.00126998897328 0.0
-0.0348344020624 -0.00421547262243 0.0
0.661816886554 0.0152427744645 0.0
0.38800023 0.0498470512941 0.0
-0.00360500391601 0.0307422056643 0.0
-0.0142069159932 0.0615560410316 0.0
-0.211272058893 -0.123212428869 0.0
-0.127291195909 0.0191322981688 0.0
-0.200581319089 -0.196288431248 0.0
-0.148979514249 -0.221795853184 0.0
-0.0760791126735 0.19634783628 0.0
-0.0706020811227 0.209579274935 0.0
-0.0987344358386 -0.0460764441545 0.0
-0.0744288953623 -0.0466906694366 0.0
-0.0782515891106 0.068165466508 0.0
-0.0619251777276 0.053129580399 0.0
-0.119249124765 0.173686235196 0.0
-0.125178795144 0.1761246484 0.0
-0.117030872206 0.0761178996616 0.0
-0.119876595753 0.0541147941672 0.0
-0.169505165136 0.0779985188391 0.0
-0.14794607041 0.0998471856494 0.0
-0.199586142929 0.0731379762345 0.0
-0.185231012878 0.0798776144902 0.0
-0.203639039567 0.0219000983892 0.0
-0.215746640263 0.0308187739889 0.0
-0.127668062661 -0.303664417312 0.0
-0.116258830214 -0.346094358952 0.0
-0.0512322054134 -0.00838315650167 0.0
-0.0386715102105 -0.00847224609732 0.0
0.197137732271 0.0927014758223 0.0
0.2282087451 0.0870062541232 0.0
-0.0293720934167 0.0817583688754 0.0
-0.0200356208111 0.0591558033427 0.0
0.718334004922 -0.0148898462928 0.0
0.675568834355 -0.025812138466 0.0
-0.00944436710172 0.113051829395 0.0
-0.014068539175 0.137309196906 0.0
-0.00247159516566 -0.0111015929868 0.0
-0.00181798535304 -0.00651042664176 0.0
-0.0124821139351 0.00159513598008 0.0
-0.00932878010359 0.00171987163378 0.0
-0.0444127610338 -0.357076267745 0.0
-0.0378904411084 -0.282527046145 0.0
-0.00728814570328 -0.0018946121372 0.0
-0.0111529956959 -0.00199492468937 0.0
0.465828814454 0.0414575922313 0.0
0.539201730568 0.0300241688816 0.0
-0.00275060947717 0.0119224698953 0.0
-0.00323630855572 0.0179413419773 0.0
0.450299521067 0.0326673459437 0.0
0.721122300625 0.00759868435781 0.0
-0.0189536493333 0.105328184263 0.0
-0.0050244921356 0.0636110759446 0.0
-0.0410302778835 -0.126842053127 0.0
-0.00930686375326 -0.056530571586 0.0
-0.0417227793127 0.000743645397018 0.0
-0.0217184792797 0.000384744319514 0.0
-0.150943365282 -0.41691360196 0.0
-0.152083755192 -0.419620579696 0.0
0.10676791386 0.12558291582 0.0
0.00357350175818 0.172345057066 0.0
-0.0383082621895 -0.0133970935261 0.0
-0.0370037397229 -0.0195878464083 0.0
-0.0240732751977 0.0508393593307 0.0
-0.0285292589822 0.0421975167248 0.0
0.114266437454 0.078271471161 0.0
0.249541161012 0.0626646718977 0.0
0.146928584232 0.0911226684628 0.0
-0.0609964000273 0.152722138174 0.0
-0.0386387352326 0.132489253353 0.0
-0.0489575561021 0.126333736462 0.0
-0.126064025897 -0.183024819831 0.0
-0.0870538491985 -0.175490442168 0.0
-0.131674976209 -0.225524414945 0.0
-0.0765688846922 0.00441459198462 0.0
-0.0598239535508 0.00136548560968 0.0
-0.0697243707077 -0.00242574681599 0.0
-0.187484376083 -0.00411255952455 0.0
-0.140448515293 -0.0271654050083 0.0
-0.127181192365 0.0348140666664 0.0
-0.107849499202 0.192909404565 0.0
-0.118358851823 0.175128008475 0.0
-0.179580746738 -0.0721637640391 0.0
-0.146406459205 -0.0853449940638 0.0
-0.179047882474 -0.10718456347 0.0
-0.102363789698 0.0459407330493 0.0
-0.115835348323 0.0339706249357 0.0
0.211266715426 -0.151611042413 0.0
0.196612204878 -0.0990401550394 0.0
0.0482678231454 -0.20278127927 0.0
-0.0645373607665 0.242788185112 0.0
-0.0598728925438 0.230441486585 0.0
-0.0717181243622 0.238313438484 0.0
-0.0161729495467 -0.0233747519433 0.0
-0.0290626302238 -0.0419977559611 0.0
-0.0318659307458 -0.0342366879953 0.0
-0.0252305893803 0.0134392483906 0.0
-0.03834139897 0.0169309815344 0.0
-0.0361579084762 0.0244634649109 0.0
-0.174868959436 -0.106988369977 0.0
-0.0976847816543 0.19944648309 0.0
-0.12064748047 -0.0631163961333 0.0
-0.0906551691907 0.0584703816085 0.0
-0.208991390746 0.0207464561673 0.0
-0.226455042256 -0.0356094412881 0.0
-0.237510386354 -0.0980881813758 0.0
-0.177979497075 -0.0404256686516 0.0
-0.152150213337 -0.0321207844483 0.0
0.760348027354 0.00306251159147 0.0
-0.00436583536087 0.0680094367222 0.0
-0.00540711443964 -0.0347604504768 0.0
-0.0184908800887 0.000731042310712 0.0
0.0587890051258 0.120719263313 0.0
0.0153279045197 0.144441683335 0.0
-0.176721228222 -0.256225552428 0.0
-0.206717260479 -0.281420848073 0.0
-0.0592909539741 0.118474727687 0.0
-0.0622270969849 0.102552363656 0.0
-0.0785783596623 -0.00779902060362 0.0
-0.0814245983169 -0.0160515185449 0.0
0.416156987548 -0.0895558732572 0.0
0.645695664627 -0.035792156594 0.0
-0.0444542038904 0.219790893702 0.0
-0.0197080062773 0.156773266597 0.0
-0.00585205054679 -0.0117966976909 0.0
-0.000976100853918 -0.00280252213419 0.0
-0.0148069927546 0.00571717871607 0.0
-0.00547194913127 0.00131092118806 0.0
-0.044986259436 -0.40183041907 0.0
-0.0970684845243 -0.50255705939 0.0
-0.00349250718705 -0.00121334783878 0.0
-0.0116664954551 -0.0058585598363 0.0
0.427891287769 0.0515751602346 0.0
0.129265814183 0.124602889143 0.0
-0.0017409456372 0.00641547608368 0.0
-0.00803605158901 0.0170855835163 0.0
-0.042844847116 0.202126873329 0.0
0.325665423917 -0.0387396062908 0.0
-0.0387981466952 0.0110408385425 0.0
-0.0262727239396 -0.0496688528945 0.0
-0.083159885804 -0.330146057017 0.0
-0.108740086901 -0.448125621608 0.0
-0.0569429743341 0.216547809525 0.0
-0.00998323235078 0.185897146632 0.0
-0.0347282714387 -0.0267733233941 0.0
-0.0219956929934 -0.0142952963796 0.0
-0.0327915070686 0.0331226147817 0.0
-0.0188745210037 0.026524199443 0.0
-0.000580333612863 -0.000946081521812 0.0
0.560504450301 -0.0622445768232 0.0
-0.00292448578779 0.00105109799735 0.0
-0.0353063633478 0.199019645438 0.0
-0.0539168161892 -0.462772967181 0.0
-0.00130148134961 -0.000751217989039 0.0
0.325831692562 0.08072331068 0.0
-0.00122439645365 0.00318339890826 0.0
0.322730366486 0.0371057930139 0.0
-0.0340001365385 0.144148219254 0.0
-0.0568524681305 -0.125979138815 0.0
-0.052706253315 0.00420277502406 0.0
-0.00263704017698 -0.00362120585635 0.0
-0.00625646117781 0.00404734874649 0.0
0.254841018381 -0.198780659884 0.0
-0.07582190502 0.262802461275 0.0
-0.0481645365148 -0.488650567748 0.0
-0.00368686770957 -0.00298420632428 0.0
0.00551589997146 0.191677226497 0.0
-0.00455213470546 0.00643119636228 0.0
-0.066881242934 -0.222816722962 0.0
-0.0713136614581 0.224269133528 0.0
-0.0521517200841 -0.0430026554627 0.0
-0.0485762366517 0.0379202273928 0.0
-0.0713153569131 0.0779724419203 0.0
-0.138583681227 0.0787205327566 0.0
-0.107098151847 0.163824727245 0.0
-0.130911664316 0.151253904395 0.0
-0.183564721757 -0.144859537931 0.0
-0.10934580724 0.0169459885251 0.0
0.141097611042 0.103209833508 0.0
-0.0417422745064 0.104205751759 0.0
0.0771601603671 0.127973292217 0.0
-0.0448886725869 0.0913613225601 0.0
-0.144358278625 -0.273087389314 0.0
-0.0638107704283 -0.00738575382271 0.0
-0.178249598179 -0.316497775046 0.0
-0.0652363708522 -0.0135469583633 0.0
0.769998267682 -0.00576815012888 0.0
0.536009485199 -0.0216758957791 0.0
-0.00553965818573 0.0861173596908 0.0
-0.0216881653665 0.159206893453 0.0
0.30631759386 0.0691414768713 0.0
0.433603766202 -0.00761504673671 0.0
-0.0286062828957 0.166473153371 0.0
-0.0882311633612 -0.363574789943 0.0
-0.0110435881248 0.0380938615465 0.0
-0.0249992929311 -0.0059225716597 0.0
0.631082538353 0.0184519135402 0.0
-0.0254506936265 -0.198128259755 0.0
-0.00306691041007 0.0226945952521 0.0
-0.013488264419 -0.00152985089028 0.0
-0.00253545904598 -0.0148918743944 0.0
-0.0104956410011 -0.0307693316519 0.0
-0.0135064341053 0.00108577777711 0.0
-0.0256313796766 0.00466948172083 0.0
-0.022796607782 -0.0561801545403 0.0
-0.0370482247267 0.00656872688134 0.0
0.0147750161652 0.079620953841 0.0
-0.0839043356163 0.164796525161 0.0
-0.155773838948 -0.166300049732 0.0
-0.0928429753834 0.0105554269948 0.0
-0.150679849159 0.110100867635 0.0
-0.182890467263 0.0706549135548 0.0
-0.140802168299 0.125838654476 0.0
0.212240613739 -0.196389396787 0.0
-0.0719988126767 0.253158608083 0.0
-0.0654925090118 -0.46016714971 0.0
-0.00809614507811 -0.0113978095757 0.0
-0.0201743115382 0.198086086452 0.0
-0.0145508656921 0.00909800921105 0.0
-0.0110120117701 -0.00838376012445 0.0
-0.0110839843087 0.0149443379584 0.0
0.213852736963 0.0287993218124 0.0
0.0925299550477 0.049128715798 0.0
-0.050885821775 0.176312982512 0.0
-0.0692595588706 0.1780847101 0.0
-0.110492699776 -0.142212271833 0.0
-0.0700518622739 -0.116937777333 0.0
-0.0613612630709 0.010158659667 0.0
-0.0777122575751 0.0130710804349 0.0
-0.0944380221244 0.185273112614 0.0
-0.225503858119 -0.148011013293 0.0
-0.0972615026487 0.0775504385308 0.0
-0.125608348994 -0.0422373920779 0.0
0.0562023326561 -0.340545123419 0.0
-0.0740605117265 0.246106174075 0.0
-0.00667907904138 -0.00704919686448 0.0
-0.00981183095475 0.00917531263834 0.0
-0.209152783626 0.0506208659421 0.0
0.569739428283 0.00392138341592 0.0
0.783856289428 -0.00115302936436 0.0
-0.0151999780672 0.123092095363 0.0
-0.00421829147207 0.072462095319 0.0
0.374211134146 0.0145228224711 0.0
-0.0317798175568 0.157849435923 0.0
-0.0152004304796 -0.0531347574135 0.0
-0.00321078616066 -0.0214156534965 0.0
-0.0305986680686 0.00296985613186 0.0
-0.0152040553924 0.000842999326691 0.0
-0.0378552349967 -0.0871685739676 0.0
-0.0459993644342 0.00620111292263 0.0
-0.187294155337 0.0510284198902 0.0
-0.16976704188 0.0325352728987 0.0
-0.175925383493 0.0182065851912 0.0
-0.178857791974 0.0338521267897 0.0
-0.170416960453 0.00354094821337 0.0
-0.181087242384 0.00335498875888 0.0
-0.1599657831 0.00432755143069 0.0
-0.162406294497 -0.00928700094499 0.0
-0.185411407085 -0.0118483034733 0.0
-0.191775302346 0.00368297997973 0.0
9.4475423981e-05 0.000242597780242 0.0
0.000104242742065 9.71536195709e-05 0.0
3.90422945435e-05 0.000334252403106 0.0
1.28499911411e-08 0.000147739685502 0.0
-2.63481635663e-05 0.000309495274616 0.0
-0.000651950674708 -0.000678226432563 0.0
-0.000228336281529 -0.000243792595081 0.0
0.00010148903117 -1.57107101068e-06 0.0
8.13684817918e-05 -7.96512350027e-05 0.0
-3.81384160832e-05 9.58447958562e-05 0.0
-0.000562483652874 0.000454943857934 0.0
-0.000349718633067 0.000179520554678 0.0
-0.00211389480771 0.00166712783879 0.0
-0.00115188797557 0.00112707967713 0.0
0.304971876866 -0.154101978845 0.0
-0.103290236155 -0.353716416137 0.0
0.496299495871 -0.084517161838 0.0
0.235175293887 -0.229398632783 0.0
0.620702828339 -0.0485480381755 0.0
0.191044595945 -0.256174637564 0.0
0.0697671019516 -0.364778790152 0.0
-0.0485477049094 0.351810910577 0.0
-0.177712531165 0.290762964465 0.0
-0.0580539618295 0.261072050363 0.0
-0.0918794811436 0.275237899983 0.0
-0.0310161755748 0.196478685728 0.0
-0.0813441894164 0.277655877246 0.0
-0.0688907417908 0.263924039194 0.0
0.000247812752211 9.15476385537e-05 0.0
0.000114951184402 -2.20172037796e-05 0.0
0.000319216530694 2.75886928122e-05 0.0
-0.000709577718954 -0.000752880681347 0.0
0.000247893025231 -5.31992040939e-05 0.0
6.89482687887e-07 -0.000103007060683 0.0
-0.000472748836353 0.000559206156903 0.0
-9.97183873668e-05 3.4900864663e-05 0.0