# vtk DataFile Version 2.0
2D Simulation Python
ASCII
DATASET UNSTRUCTURED_GRID
FIELD FieldData 1
NODES 1 2 int
45 68

POINTS 45 double
0.0 0.0 0.0
1.0 0.0 0.0
1.0 1.0 0.0
0.0 1.0 0.0
0.1999999999995579 0.0 0.0
0.3999999999989749 0.0 0.0
0.5999999999989468 0.0 0.0
0.7999999999994734 0.0 0.0
1.0 0.1999999999995579 0.0
1.0 0.3999999999989749 0.0
1.0 0.5999999999989468 0.0
1.0 0.7999999999994734 0.0
0.7999999999999998 1.0 0.0
0.6000000000013869 1.0 0.0
0.4000000000016644 1.0 0.0
0.2000000000008322 1.0 0.0
0.0 0.7999999999999998 0.0
0.0 0.6000000000013869 0.0
0.0 0.4000000000016644 0.0
0.0 0.2000000000008322 0.0
0.49828005492045657 0.5008882703419901 0.0
0.7065419651245045 0.7117701082253329 0.0
0.2878149221474232 0.7074720571275575 0.0
0.7107579063469756 0.2931534723003405 0.0
0.29219860974826484 0.2888072693064043 0.0
0.4965903529449317 0.792513990215101 0.0
0.20708919549141674 0.4975048703852549 0.0
0.7914601633114755 0.503071066417933 0.0
0.5021357817633727 0.2081463434848171 0.0
0.8458623222600659 0.8481667571570581 0.0
0.15166090081325473 0.84614492304529 0.0
0.847846999167416 0.1540760727557231 0.0
0.15378013577245978 0.15196991819273165 0.0
0.5877205718181706 0.5929657088224659 0.0
0.40631326615223395 0.5896334546121593 0.0
0.591045820136591 0.4117098090381171 0.0
0.40977796463067245 0.4082166804974522 0.0
0.312622423563644 0.8672068164879165 0.0
0.13260796759616575 0.3130859816505745 0.0
0.8667450911677954 0.6871536775260536 0.0
0.6866761223844053 0.1330837528741191 0.0
0.6828166095441426 0.8687909240788236 0.0
0.13096881995890214 0.6832634929459522 0.0
0.8682661846184274 0.31704819456736444 0.0
0.31658575652889176 0.13148580050382863 0.0

CELLS 68 272
3 21 33 27
3 27 33 35
3 23 35 28
3 25 34 33
3 28 35 36
3 22 34 25
3 26 36 34
3 24 36 26
3 17 18 26
3 13 14 25
3 5 6 28
3 9 10 27
3 2 12 29
3 3 16 30
3 1 8 31
3 0 4 32
3 1 31 7
3 2 29 11
3 0 32 19
3 3 30 15
3 17 26 42
3 13 25 41
3 5 28 44
3 9 27 43
3 21 41 25
3 22 42 26
3 23 43 27
3 14 37 25
3 24 44 28
3 22 25 37
3 21 27 39
3 18 38 26
3 10 39 27
3 24 26 38
3 23 28 40
3 6 40 28
3 21 25 33
3 20 34 36
3 22 26 34
3 20 36 35
3 20 33 34
3 23 27 35
3 20 35 33
3 24 28 36
3 14 15 37
3 18 19 38
3 12 13 41
3 16 17 42
3 10 11 39
3 6 7 40
3 8 9 43
3 4 5 44
3 12 41 29
3 16 42 30
3 8 43 31
3 4 44 32
3 11 29 39
3 15 30 37
3 7 31 40
3 19 32 38
3 22 37 30
3 21 39 29
3 24 38 32
3 23 40 31
3 21 29 41
3 22 30 42
3 23 31 43
3 24 32 44

CELL_TYPES 68
5 
5 
5 
5 
5 
5 
5 
5 
5 
5 
5 
5 
5 
5 
5 
5 
5 
5 
5 
5 
5 
5 
5 
5 
5 
5 
5 
5 
5 
5 
5 
5 
5 
5 
5 
5 
5 
5 
5 
5 
5 
5 
5 
5 
5 
5 
5 
5 
5 
5 
5 
5 
5 
5 
5 
5 
5 
5 
5 
5 
5 
5 
5 
5 
5 
5 
5 
5 

POINT_DATA 45
VECTORS vector double
0.0 0.0 0.0
0.0 0.0 0.0
0.0 0.0 0.0
0.0 0.0 0.0
0.0 0.0 0.0
0.0 0.0 0.0
0.0 0.0 0.0
0.0 0.0 0.0
0.0 0.0 0.0
0.0 0.0 0.0
0.0 0.0 0.0
0.0 0.0 0.0
1.0 0.0 0.0
1.0 0.0 0.0
1.0 0.0 0.0
1.0 0.0 0.0
0.0 0.0 0.0
0.0 0.0 0.0
0.0 0.0 0.0
0.0 0.0 0.0
-0.17441253079 0.0602882256591 0.0
-0.104357526233 -0.162164985943 0.0
-0.0519152570474 0.235598275969 0.0
-0.0815230337277 -0.0216380964655 0.0
-0.0567649481975 0.0339755469249 0.0
0.0336595386162 0.0959295615533 0.0
-0.0593978612072 0.113071782588 0.0
-0.139677613487 -0.166623308624 0.0
-0.0706539501547 0.00196260920262 0.0
0.0512208686201 -0.308432628058 0.0
-0.0688489553859 0.174461244144 0.0
-0.0132389830073 -0.0136672372643 0.0
-0.0109511545641 0.0111256647529 0.0
-0.243986674786 -0.010564015794 0.0
-0.184381993693 0.137522799026 0.0
-0.161288562204 -0.033567560904 0.0
-0.128929271909 0.0661755671113 0.0
0.0235488574775 0.175658626913 0.0
-0.0282490032064 0.0325183404207 0.0
-0.100875482723 -0.374792822804 0.0
-0.0305819545076 -0.0123614265141 0.0
0.22679584276 -0.0628400935745 0.0
-0.0218097588591 0.171975195813 0.0
-0.0565607849655 -0.0539910022617 0.0
-0.0251746741587 0.0109035265109 0.0

SCALARS scalar1 double
LOOKUP_TABLE default
0.136811120276
0.00293453611712
-0.449091488898
-1.99235745156
0.0948275595655
0.311150883472
0.295753236657
0.117283668194
0.260225459647
0.716356667639
2.34794358431
4.60222570853
-8.14223509225
-5.3108955676
-6.90664539315
-9.60699739354
2.87859556981
0.752593040902
0.561491142627
0.124239501265
-0.0578242837958
-3.00339677639
-0.346608656062
0.296276642077
0.18755467215
-3.72584178783
0.233609793815
0.0951354481252
0.22886289354
-3.89023657436
0.411756066176
0.255593599299
0.166979295116
-1.28068246914
-0.400473525963
0.0186890562591
0.0600898101386
-1.94534886358
0.267691007931
-0.590865721706
0.256452800185
-4.67126842993
0.576992842835
0.437020973092
0.215655795998

SCALARS scalar2 double
LOOKUP_TABLE default
0.136811120276
0.00293453611712
-0.449091488898
-1.99235745156
0.0948275595655
0.311150883472
0.295753236657
0.117283668194
0.260225459647
0.716356667639
2.34794358431
4.60222570853
-8.14223509225
-5.3108955676
-6.90664539315
-9.60699739354
2.87859556981
0.752593040902
0.561491142627
0.124239501265
-0.0578242837958
-3.00339677639
-0.346608656062
0.296276642077
0.18755467215
-3.72584178783
0.233609793815
0.0951354481252
0.22886289354
-3.89023657436
0.411756066176
0.255593599299
0.166979295116
-1.28068246914
-0.400473525963
0.0186890562591
0.0600898101386
-1.94534886358
0.267691007931
-0.590865721706
0.256452800185
-4.67126842993
0.576992842835
0.437020973092
0.215655795998

SCALARS scalar3 double
LOOKUP_TABLE default
0.0
0.0
0.0
0.0
0.0
0.0
0.0
0.0
0.0
0.0
0.0
0.0
0.0
0.0
0.0
0.0
0.0
0.0
0.0
0.0
-0.0442566206906
-0.0790344986293
-0.0443132307693
-0.010707069644
-0.00844196621798
-0.0934290166982
-0.0148944062598
-0.0279314323559
-0.00680076877859
-0.0473864233298
-0.0202004672754
-0.000413331457505
-0.000354947161571
-0.0672090044567
-0.0520711806263
-0.0296757072147
-0.0254622288343
-0.0482201011098
-0.00289470413788
-0.0340336075045
-0.00221609574226
-0.0715166209772
-0.0129127685896
-0.00480405842492
-0.00194738736632

