# vtk DataFile Version 2.0
2D Simulation Python
ASCII
DATASET UNSTRUCTURED_GRID
FIELD FieldData 1
NODES 1 2 int
7905 15488

POINTS 7905 double
0.0 0.0 0.0
1.0 0.0 0.0
1.0 1.0 0.0
0.0 1.0 0.0
0.01249999999997639 0.0 0.0
0.02499999999995297 0.0 0.0
0.03749999999992721 0.0 0.0
0.04999999999989927 0.0 0.0
0.0624999999998716 0.0 0.0
0.07499999999985263 0.0 0.0
0.08749999999983366 0.0 0.0
0.09999999999981467 0.0 0.0
0.1124999999997956 0.0 0.0
0.1249999999997765 0.0 0.0
0.1374999999997401 0.0 0.0
0.1499999999997036 0.0 0.0
0.1624999999996672 0.0 0.0
0.1749999999996308 0.0 0.0
0.1874999999995943 0.0 0.0
0.1999999999995579 0.0 0.0
0.2124999999995214 0.0 0.0
0.224999999999485 0.0 0.0
0.2374999999994485 0.0 0.0
0.2499999999994121 0.0 0.0
0.2624999999993757 0.0 0.0
0.2749999999993393 0.0 0.0
0.2874999999993028 0.0 0.0
0.2999999999992664 0.0 0.0
0.3124999999992299 0.0 0.0
0.3249999999991935 0.0 0.0
0.3374999999991571 0.0 0.0
0.3499999999991207 0.0 0.0
0.3624999999990842 0.0 0.0
0.3749999999990478 0.0 0.0
0.3874999999990113 0.0 0.0
0.3999999999989749 0.0 0.0
0.4124999999989398 0.0 0.0
0.4249999999989048 0.0 0.0
0.4374999999988697 0.0 0.0
0.4499999999988346 0.0 0.0
0.4624999999987995 0.0 0.0
0.4749999999987644 0.0 0.0
0.4874999999987293 0.0 0.0
0.4999999999986943 0.0 0.0
0.5124999999987259 0.0 0.0
0.5249999999987575 0.0 0.0
0.5374999999987891 0.0 0.0
0.5499999999988205 0.0 0.0
0.5624999999988521 0.0 0.0
0.5749999999988837 0.0 0.0
0.5874999999989152 0.0 0.0
0.5999999999989468 0.0 0.0
0.6124999999989797 0.0 0.0
0.6249999999990127 0.0 0.0
0.6374999999990456 0.0 0.0
0.6499999999990784 0.0 0.0
0.6624999999991114 0.0 0.0
0.6749999999991443 0.0 0.0
0.6874999999991771 0.0 0.0
0.69999999999921 0.0 0.0
0.712499999999243 0.0 0.0
0.7249999999992759 0.0 0.0
0.7374999999993088 0.0 0.0
0.7499999999993416 0.0 0.0
0.7624999999993746 0.0 0.0
0.7749999999994075 0.0 0.0
0.7874999999994404 0.0 0.0
0.7999999999994734 0.0 0.0
0.8124999999995063 0.0 0.0
0.8249999999995392 0.0 0.0
0.8374999999995721 0.0 0.0
0.8499999999996051 0.0 0.0
0.862499999999638 0.0 0.0
0.8749999999996709 0.0 0.0
0.8874999999997039 0.0 0.0
0.8999999999997368 0.0 0.0
0.9124999999997697 0.0 0.0
0.9249999999998026 0.0 0.0
0.9374999999998355 0.0 0.0
0.9499999999998684 0.0 0.0
0.9624999999999013 0.0 0.0
0.9749999999999343 0.0 0.0
0.9874999999999672 0.0 0.0
1.0 0.01249999999997639 0.0
1.0 0.02499999999995297 0.0
1.0 0.03749999999992721 0.0
1.0 0.04999999999989927 0.0
1.0 0.0624999999998716 0.0
1.0 0.07499999999985263 0.0
1.0 0.08749999999983366 0.0
1.0 0.09999999999981467 0.0
1.0 0.1124999999997956 0.0
1.0 0.1249999999997765 0.0
1.0 0.1374999999997401 0.0
1.0 0.1499999999997036 0.0
1.0 0.1624999999996672 0.0
1.0 0.1749999999996308 0.0
1.0 0.1874999999995943 0.0
1.0 0.1999999999995579 0.0
1.0 0.2124999999995214 0.0
1.0 0.224999999999485 0.0
1.0 0.2374999999994485 0.0
1.0 0.2499999999994121 0.0
1.0 0.2624999999993757 0.0
1.0 0.2749999999993393 0.0
1.0 0.2874999999993028 0.0
1.0 0.2999999999992664 0.0
1.0 0.3124999999992299 0.0
1.0 0.3249999999991935 0.0
1.0 0.3374999999991571 0.0
1.0 0.3499999999991207 0.0
1.0 0.3624999999990842 0.0
1.0 0.3749999999990478 0.0
1.0 0.3874999999990113 0.0
1.0 0.3999999999989749 0.0
1.0 0.4124999999989398 0.0
1.0 0.4249999999989048 0.0
1.0 0.4374999999988697 0.0
1.0 0.4499999999988346 0.0
1.0 0.4624999999987995 0.0
1.0 0.4749999999987644 0.0
1.0 0.4874999999987293 0.0
1.0 0.4999999999986943 0.0
1.0 0.5124999999987259 0.0
1.0 0.5249999999987575 0.0
1.0 0.5374999999987891 0.0
1.0 0.5499999999988205 0.0
1.0 0.5624999999988521 0.0
1.0 0.5749999999988837 0.0
1.0 0.5874999999989152 0.0
1.0 0.5999999999989468 0.0
1.0 0.6124999999989797 0.0
1.0 0.6249999999990127 0.0
1.0 0.6374999999990456 0.0
1.0 0.6499999999990784 0.0
1.0 0.6624999999991114 0.0
1.0 0.6749999999991443 0.0
1.0 0.6874999999991771 0.0
1.0 0.69999999999921 0.0
1.0 0.712499999999243 0.0
1.0 0.7249999999992759 0.0
1.0 0.7374999999993088 0.0
1.0 0.7499999999993416 0.0
1.0 0.7624999999993746 0.0
1.0 0.7749999999994075 0.0
1.0 0.7874999999994404 0.0
1.0 0.7999999999994734 0.0
1.0 0.8124999999995063 0.0
1.0 0.8249999999995392 0.0
1.0 0.8374999999995721 0.0
1.0 0.8499999999996051 0.0
1.0 0.862499999999638 0.0
1.0 0.8749999999996709 0.0
1.0 0.8874999999997039 0.0
1.0 0.8999999999997368 0.0
1.0 0.9124999999997697 0.0
1.0 0.9249999999998026 0.0
1.0 0.9374999999998355 0.0
1.0 0.9499999999998684 0.0
1.0 0.9624999999999013 0.0
1.0 0.9749999999999343 0.0
1.0 0.9874999999999672 0.0
0.9874999999999439 1.0 0.0
0.9749999999998877 1.0 0.0
0.9624999999998541 1.0 0.0
0.9499999999998356 1.0 0.0
0.9374999999997805 1.0 0.0
0.9249999999996992 1.0 0.0
0.9124999999996414 1.0 0.0
0.8999999999995836 1.0 0.0
0.8874999999996454 1.0 0.0
0.8749999999997078 1.0 0.0
0.8624999999997771 1.0 0.0
0.8499999999998515 1.0 0.0
0.837499999999895 1.0 0.0
0.8249999999999216 1.0 0.0
0.8124999999999571 1.0 0.0
0.7999999999999998 1.0 0.0
0.7875000000000937 1.0 0.0
0.77500000000021 1.0 0.0
0.7625000000002968 1.0 0.0
0.7500000000003858 1.0 0.0
0.7375000000004739 1.0 0.0
0.7250000000005448 1.0 0.0
0.7125000000005861 1.0 0.0
0.7000000000006934 1.0 0.0
0.6875000000008109 1.0 0.0
0.6750000000009306 1.0 0.0
0.6625000000010091 1.0 0.0
0.6500000000010593 1.0 0.0
0.6375000000011386 1.0 0.0
0.6250000000012101 1.0 0.0
0.612500000001312 1.0 0.0
0.6000000000013869 1.0 0.0
0.5875000000014601 1.0 0.0
0.5750000000015277 1.0 0.0
0.5625000000016089 1.0 0.0
0.5500000000016854 1.0 0.0
0.5375000000017889 1.0 0.0
0.5250000000018821 1.0 0.0
0.5125000000019756 1.0 0.0
0.5000000000020587 1.0 0.0
0.4875000000020093 1.0 0.0
0.4750000000019601 1.0 0.0
0.4625000000019108 1.0 0.0
0.4500000000018616 1.0 0.0
0.4375000000018123 1.0 0.0
0.425000000001763 1.0 0.0
0.4125000000017136 1.0 0.0
0.4000000000016644 1.0 0.0
0.3875000000016123 1.0 0.0
0.3750000000015603 1.0 0.0
0.3625000000015083 1.0 0.0
0.3500000000014563 1.0 0.0
0.3375000000014042 1.0 0.0
0.3250000000013522 1.0 0.0
0.3125000000013003 1.0 0.0
0.3000000000012483 1.0 0.0
0.2875000000011962 1.0 0.0
0.2750000000011442 1.0 0.0
0.2625000000010922 1.0 0.0
0.2500000000010403 1.0 0.0
0.2375000000009883 1.0 0.0
0.2250000000009362 1.0 0.0
0.2125000000008842 1.0 0.0
0.2000000000008322 1.0 0.0
0.1875000000007802 1.0 0.0
0.1750000000007281 1.0 0.0
0.1625000000006761 1.0 0.0
0.1500000000006241 1.0 0.0
0.1375000000005721 1.0 0.0
0.12500000000052 1.0 0.0
0.112500000000468 1.0 0.0
0.100000000000416 1.0 0.0
0.08750000000036395 1.0 0.0
0.07500000000031193 1.0 0.0
0.06250000000026001 1.0 0.0
0.05000000000020799 1.0 0.0
0.03750000000015596 1.0 0.0
0.02500000000010394 1.0 0.0
0.01250000000005191 1.0 0.0
0.0 0.9874999999999439 0.0
0.0 0.9749999999998877 0.0
0.0 0.9624999999998541 0.0
0.0 0.9499999999998356 0.0
0.0 0.9374999999997805 0.0
0.0 0.9249999999996992 0.0
0.0 0.9124999999996414 0.0
0.0 0.8999999999995836 0.0
0.0 0.8874999999996454 0.0
0.0 0.8749999999997078 0.0
0.0 0.8624999999997771 0.0
0.0 0.8499999999998515 0.0
0.0 0.837499999999895 0.0
0.0 0.8249999999999216 0.0
0.0 0.8124999999999571 0.0
0.0 0.7999999999999998 0.0
0.0 0.7875000000000937 0.0
0.0 0.77500000000021 0.0
0.0 0.7625000000002968 0.0
0.0 0.7500000000003858 0.0
0.0 0.7375000000004739 0.0
0.0 0.7250000000005448 0.0
0.0 0.7125000000005861 0.0
0.0 0.7000000000006934 0.0
0.0 0.6875000000008109 0.0
0.0 0.6750000000009306 0.0
0.0 0.6625000000010091 0.0
0.0 0.6500000000010593 0.0
0.0 0.6375000000011386 0.0
0.0 0.6250000000012101 0.0
0.0 0.612500000001312 0.0
0.0 0.6000000000013869 0.0
0.0 0.5875000000014601 0.0
0.0 0.5750000000015277 0.0
0.0 0.5625000000016089 0.0
0.0 0.5500000000016854 0.0
0.0 0.5375000000017889 0.0
0.0 0.5250000000018821 0.0
0.0 0.5125000000019756 0.0
0.0 0.5000000000020587 0.0
0.0 0.4875000000020093 0.0
0.0 0.4750000000019601 0.0
0.0 0.4625000000019108 0.0
0.0 0.4500000000018616 0.0
0.0 0.4375000000018123 0.0
0.0 0.425000000001763 0.0
0.0 0.4125000000017136 0.0
0.0 0.4000000000016644 0.0
0.0 0.3875000000016123 0.0
0.0 0.3750000000015603 0.0
0.0 0.3625000000015083 0.0
0.0 0.3500000000014563 0.0
0.0 0.3375000000014042 0.0
0.0 0.3250000000013522 0.0
0.0 0.3125000000013003 0.0
0.0 0.3000000000012483 0.0
0.0 0.2875000000011962 0.0
0.0 0.2750000000011442 0.0
0.0 0.2625000000010922 0.0
0.0 0.2500000000010403 0.0
0.0 0.2375000000009883 0.0
0.0 0.2250000000009362 0.0
0.0 0.2125000000008842 0.0
0.0 0.2000000000008322 0.0
0.0 0.1875000000007802 0.0
0.0 0.1750000000007281 0.0
0.0 0.1625000000006761 0.0
0.0 0.1500000000006241 0.0
0.0 0.1375000000005721 0.0
0.0 0.12500000000052 0.0
0.0 0.112500000000468 0.0
0.0 0.100000000000416 0.0
0.0 0.08750000000036395 0.0
0.0 0.07500000000031193 0.0
0.0 0.06250000000026001 0.0
0.0 0.05000000000020799 0.0
0.0 0.03750000000015596 0.0
0.0 0.02500000000010394 0.0
0.0 0.01250000000005191 0.0
0.49953774539787665 0.498380159013891 0.0
0.7056949420851993 0.70496157783137 0.0
0.2942795441225311 0.7065548492529019 0.0
0.7052452742142938 0.29410038154344187 0.0
0.29413111506199685 0.2942743879024906 0.0
0.4946991973735898 0.7865567605881962 0.0
0.2139885487939895 0.4955763845901351 0.0
0.788014038698702 0.5054121911481653 0.0
0.5054037266689744 0.21193435347209238 0.0
0.8286024276533979 0.8287555697245584 0.0
0.17122709040387243 0.8285963136408037 0.0
0.8287555715369268 0.17139757049475424 0.0
0.17141273245959282 0.17123382086375144 0.0
0.641247717113699 0.8517057194274849 0.0
0.14863484578941183 0.6419614907854297 0.0
0.3600182159413824 0.8471755254893829 0.0
0.84728093795237 0.6398529117809386 0.0
0.8517092998450342 0.3587511242222914 0.0
0.15291666578934848 0.36006664726970516 0.0
0.3587506798870608 0.14828879276729115 0.0
0.6398531291423447 0.1527184049582538 0.0
0.566571150177622 0.6415731368083155 0.0
0.3688818235579747 0.5782549845029366 0.0
0.6449398614520598 0.4472357980369 0.0
0.4333760618948633 0.35317200763129886 0.0
0.42643522650290455 0.6554999807042661 0.0
0.6657612494576086 0.5501260045279578 0.0
0.3568162699517172 0.4286282769018269 0.0
0.5445464039725658 0.34276838687074984 0.0
0.45947644365844237 0.8920626397979974 0.0
[...]
POINT_DATA 7905
VECTORS vector double
0.0 0.0 0.0
0.0 0.0 0.0
1.0 0.0 0.0
1.0 0.0 0.0
0.0 0.0 0.0
0.0 0.0 0.0
0.0 0.0 0.0
0.0 0.0 0.0
0.0 0.0 0.0
0.0 0.0 0.0
0.0 0.0 0.0
0.0 0.0 0.0
0.0 0.0 0.0
0.0 0.0 0.0
0.0 0.0 0.0
0.0 0.0 0.0
0.0 0.0 0.0
0.0 0.0 0.0
0.0 0.0 0.0
0.0 0.0 0.0
0.0 0.0 0.0
0.0 0.0 0.0
0.0 0.0 0.0
0.0 0.0 0.0
0.0 0.0 0.0
0.0 0.0 0.0
0.0 0.0 0.0
0.0 0.0 0.0
0.0 0.0 0.0
0.0 0.0 0.0
0.0 0.0 0.0
0.0 0.0 0.0
0.0 0.0 0.0
0.0 0.0 0.0
0.0 0.0 0.0
0.0 0.0 0.0
0.0 0.0 0.0
0.0 0.0 0.0
0.0 0.0 0.0
0.0 0.0 0.0
0.0 0.0 0.0
0.0 0.0 0.0
0.0 0.0 0.0
0.0 0.0 0.0
0.0 0.0 0.0
0.0 0.0 0.0
0.0 0.0 0.0
0.0 0.0 0.0
0.0 0.0 0.0
0.0 0.0 0.0
0.0 0.0 0.0
0.0 0.0 0.0
0.0 0.0 0.0
0.0 0.0 0.0
0.0 0.0 0.0
0.0 0.0 0.0
0.0 0.0 0.0
0.0 0.0 0.0
0.0 0.0 0.0
0.0 0.0 0.0
0.0 0.0 0.0
0.0 0.0 0.0
0.0 0.0 0.0
0.0 0.0 0.0
0.0 0.0 0.0
0.0 0.0 0.0
0.0 0.0 0.0
0.0 0.0 0.0
0.0 0.0 0.0
0.0 0.0 0.0
0.0 0.0 0.0
0.0 0.0 0.0
0.0 0.0 0.0
0.0 0.0 0.0
0.0 0.0 0.0
0.0 0.0 0.0
0.0 0.0 0.0
0.0 0.0 0.0
0.0 0.0 0.0
0.0 0.0 0.0
0.0 0.0 0.0
0.0 0.0 0.0
0.0 0.0 0.0
0.0 0.0 0.0
0.0 0.0 0.0
0.0 0.0 0.0
0.0 0.0 0.0
0.0 0.0 0.0
0.0 0.0 0.0
0.0 0.0 0.0
0.0 0.0 0.0
0.0 0.0 0.0
0.0 0.0 0.0
0.0 0.0 0.0
0.0 0.0 0.0
0.0 0.0 0.0
0.0 0.0 0.0
0.0 0.0 0.0
0.0 0.0 0.0
0.0 0.0 0.0
0.0 0.0 0.0
0.0 0.0 0.0
0.0 0.0 0.0
0.0 0.0 0.0
0.0 0.0 0.0
0.0 0.0 0.0
0.0 0.0 0.0
0.0 0.0 0.0
0.0 0.0 0.0
0.0 0.0 0.0
0.0 0.0 0.0
0.0 0.0 0.0
0.0 0.0 0.0
0.0 0.0 0.0
0.0 0.0 0.0
0.0 0.0 0.0
0.0 0.0 0.0
0.0 0.0 0.0
0.0 0.0 0.0
0.0 0.0 0.0
0.0 0.0 0.0
0.0 0.0 0.0
0.0 0.0 0.0
0.0 0.0 0.0
0.0 0.0 0.0
0.0 0.0 0.0
0.0 0.0 0.0
0.0 0.0 0.0
0.0 0.0 0.0
0.0 0.0 0.0
0.0 0.0 0.0
0.0 0.0 0.0
0.0 0.0 0.0
0.0 0.0 0.0
0.0 0.0 0.0
0.0 0.0 0.0
0.0 0.0 0.0
0.0 0.0 0.0
0.0 0.0 0.0
0.0 0.0 0.0
0.0 0.0 0.0
0.0 0.0 0.0
0.0 0.0 0.0
0.0 0.0 0.0
0.0 0.0 0.0
0.0 0.0 0.0
0.0 0.0 0.0
0.0 0.0 0.0
0.0 0.0 0.0
0.0 0.0 0.0
0.0 0.0 0.0
0.0 0.0 0.0
0.0 0.0 0.0
0.0 0.0 0.0
0.0 0.0 0.0
0.0 0.0 0.0
0.0 0.0 0.0
0.0 0.0 0.0
0.0 0.0 0.0
0.0 0.0 0.0
0.0 0.0 0.0
0.0 0.0 0.0
1.0 0.0 0.0
1.0 0.0 0.0
1.0 0.0 0.0
1.0 0.0 0.0
1.0 0.0 0.0
1.0 0.0 0.0
1.0 0.0 0.0
1.0 0.0 0.0
1.0 0.0 0.0
1.0 0.0 0.0
1.0 0.0 0.0
1.0 0.0 0.0
1.0 0.0 0.0
1.0 0.0 0.0
1.0 0.0 0.0
1.0 0.0 0.0
1.0 0.0 0.0
1.0 0.0 0.0
1.0 0.0 0.0
1.0 0.0 0.0
1.0 0.0 0.0
1.0 0.0 0.0
1.0 0.0 0.0
1.0 0.0 0.0
1.0 0.0 0.0
1.0 0.0 0.0
1.0 0.0 0.0
1.0 0.0 0.0
1.0 0.0 0.0
1.0 0.0 0.0
1.0 0.0 0.0
1.0 0.0 0.0
1.0 0.0 0.0
1.0 0.0 0.0
1.0 0.0 0.0
1.0 0.0 0.0
1.0 0.0 0.0
1.0 0.0 0.0
1.0 0.0 0.0
1.0 0.0 0.0
1.0 0.0 0.0
1.0 0.0 0.0
1.0 0.0 0.0
1.0 0.0 0.0
1.0 0.0 0.0
1.0 0.0 0.0
1.0 0.0 0.0
1.0 0.0 0.0
1.0 0.0 0.0
1.0 0.0 0.0
1.0 0.0 0.0
1.0 0.0 0.0
1.0 0.0 0.0
1.0 0.0 0.0
1.0 0.0 0.0
1.0 0.0 0.0
1.0 0.0 0.0
1.0 0.0 0.0
1.0 0.0 0.0
1.0 0.0 0.0
1.0 0.0 0.0
1.0 0.0 0.0
1.0 0.0 0.0
1.0 0.0 0.0
1.0 0.0 0.0
1.0 0.0 0.0
1.0 0.0 0.0
1.0 0.0 0.0
1.0 0.0 0.0
1.0 0.0 0.0
1.0 0.0 0.0
1.0 0.0 0.0
1.0 0.0 0.0
1.0 0.0 0.0
1.0 0.0 0.0
1.0 0.0 0.0
1.0 0.0 0.0
1.0 0.0 0.0
1.0 0.0 0.0
0.0 0.0 0.0
0.0 0.0 0.0
0.0 0.0 0.0
0.0 0.0 0.0
0.0 0.0 0.0
0.0 0.0 0.0
0.0 0.0 0.0
0.0 0.0 0.0
0.0 0.0 0.0
0.0 0.0 0.0
0.0 0.0 0.0
0.0 0.0 0.0
0.0 0.0 0.0
0.0 0.0 0.0
0.0 0.0 0.0
0.0 0.0 0.0
0.0 0.0 0.0
0.0 0.0 0.0
0.0 0.0 0.0
0.0 0.0 0.0
0.0 0.0 0.0
0.0 0.0 0.0
0.0 0.0 0.0
0.0 0.0 0.0
0.0 0.0 0.0
0.0 0.0 0.0
0.0 0.0 0.0
0.0 0.0 0.0
0.0 0.0 0.0
0.0 0.0 0.0
0.0 0.0 0.0
0.0 0.0 0.0
0.0 0.0 0.0
0.0 0.0 0.0
0.0 0.0 0.0
0.0 0.0 0.0
0.0 0.0 0.0
0.0 0.0 0.0
0.0 0.0 0.0
0.0 0.0 0.0
0.0 0.0 0.0
0.0 0.0 0.0
0.0 0.0 0.0
0.0 0.0 0.0
0.0 0.0 0.0
0.0 0.0 0.0
0.0 0.0 0.0
0.0 0.0 0.0
0.0 0.0 0.0
0.0 0.0 0.0
0.0 0.0 0.0
0.0 0.0 0.0
0.0 0.0 0.0
0.0 0.0 0.0
0.0 0.0 0.0
0.0 0.0 0.0
0.0 0.0 0.0
0.0 0.0 0.0
0.0 0.0 0.0
0.0 0.0 0.0
0.0 0.0 0.0
0.0 0.0 0.0
0.0 0.0 0.0
0.0 0.0 0.0
0.0 0.0 0.0
0.0 0.0 0.0
0.0 0.0 0.0
0.0 0.0 0.0
0.0 0.0 0.0
0.0 0.0 0.0
0.0 0.0 0.0
0.0 0.0 0.0
0.0 0.0 0.0
0.0 0.0 0.0
0.0 0.0 0.0
0.0 0.0 0.0
0.0 0.0 0.0
0.0 0.0 0.0
0.0 0.0 0.0
-0.256749580888 0.0218742490669 0.0
-0.100719952064 -0.249382579052 0.0
-0.0326106728162 0.291542852815 0.0
-0.144588514147 -0.106476171627 0.0
-0.14499616692 0.0956600607799 0.0
0.158276825786 0.0749121715202 0.0
-0.114258538381 0.247849224893 0.0
-0.177086002877 -0.290855298975 0.0
-0.163661198417 -0.00495289602859 0.0
0.0262963914608 -0.356780642228 0.0
0.00241527253639 0.31511408356 0.0
-0.0318660082223 -0.033587653923 0.0
-0.043584990216 0.038254484131 0.0
0.352933259283 -0.0598247327279 0.0
-0.0471672349914 0.31983343811 0.0
0.230792056213 0.156349279551 0.0
-0.145729391598 -0.422299059394 0.0
-0.063717407481 -0.129471860093 0.0
-0.0673425724276 0.141285214155 0.0
-0.104530708035 0.022315964712 0.0
-0.10036868072 -0.0280731404374 0.0
-0.153151860763 -0.0384704860272 0.0
-0.167489671646 0.202290523246 0.0
-0.251065899801 -0.155612883246 0.0
-0.226256086885 0.052355271006 0.0
-0.100054459528 0.158958467664 0.0
-0.251513890514 -0.209335227409 0.0
-0.209961011733 0.140471850772 0.0
-0.233023194344 -0.0368144932812 0.0
0.43693631174 0.0492463373411 0.0
-0.0424170615249 0.182254085145 0.0
-0.0759503634344 -0.257732582281 0.0
-0.0748951447116 -0.0055281607071 0.0
0.465520076232 -0.0825836786747 0.0
-0.0179668781071 0.29771311811 0.0
-0.017040287745 -0.0449649807701 0.0
-0.048219741369 0.0138678576428 0.0
-0.0955404615682 -0.476001157219 0.0
0.250452069676 0.148080047113 0.0
-0.0392152190361 -0.0153562783026 0.0
-0.0255287015346 0.0620074671464 0.0
-0.00544026029303 -0.0638901786009 0.0
-0.118677605768 0.301352840907 0.0
-0.165717311112 -0.186011552049 0.0
-0.163895119864 0.0443889767977 0.0
0.0293264478747 0.192098913693 0.0
-0.219240723165 -0.334425571931 0.0
-0.144002905752 0.168424444116 0.0
-0.16613753278 -0.053555109202 0.0
0.0469070196983 -0.378646105596 0.0
-0.0568396522333 0.275465748159 0.0
-0.00395759142761 -0.00443100668605 0.0
-0.00752681439341 0.00724711796281 0.0
0.62988733299 -0.0045378305807 0.0
-0.0236869080779 0.212108334998 0.0
-0.0306618526848 -0.12085579233 0.0
-0.0721596964104 0.00383628673665 0.0
-0.125871662882 -0.404429262232 0.0
0.0573940712966 0.270669427005 0.0
-0.0936269653022 -0.0586185498712 0.0
-0.0887329837789 0.0969339104587 0.0
0.102571170224 -0.20115004018 0.0
-0.0287172165904 0.342583247798 0.0
-0.0771776960329 -0.0939737064339 0.0
-0.102051152879 0.0523758248331 0.0
-0.199197055391 0.0695496599228 0.0
-0.257322697274 -0.0840981729012 0.0
-0.227041840424 0.127500311658 0.0
-0.26357775723 -0.0582421048321 0.0
-0.185266141982 -0.173786484624 0.0
-0.0881407562571 0.241366886206 0.0
-0.211762142913 -0.110929644938 0.0
-0.190135880539 0.106215239628 0.0
0.680666603872 -0.0228082215763 0.0
-0.0131889393471 0.215134260618 0.0
-0.0136178656866 -0.0592070819186 0.0
-0.0511246856726 0.00531205140039 0.0
-0.0511808766468 -0.296943579456 0.0
-0.0517131861926 -0.00735602138111 0.0
0.541827102518 0.0563577602886 0.0
-0.0190476256578 0.0888650898928 0.0
0.406441246072 -0.119416364072 0.0
-0.0231863069346 0.278108058168 0.0
-0.00663083268946 -0.0137506659971 0.0
-0.0201570568872 0.00819985850723 0.0
-0.0759558687458 -0.512141423296 0.0
-0.0141074710273 -0.00702850318225 0.0
0.15553842585 0.166305285383 0.0
-0.0109414917591 0.0218871770341 0.0
-0.043451451562 0.0685220102757 0.0
-0.17188293913 0.21978323822 0.0
-0.231789863825 -0.245917961976 0.0
-0.206290570379 -0.00124630963486 0.0
0.319937730534 0.0094867688371 0.0
-0.0723615039206 0.282696496632 0.0
-0.103983263353 -0.215208188876 0.0
-0.130919244405 0.0102672590625 0.0
0.212441911758 0.126337059515 0.0
-0.0936506273148 0.197377263957 0.0
-0.166392431909 -0.358688368202 0.0
-0.137834719314 -0.0228169997581 0.0
-0.253127643996 0.0453495264794 0.0
-0.250547809474 -0.00155185624787 0.0
-0.249680259029 -0.0491462740851 0.0
-0.261824907533 -0.00801603379544 0.0
-0.000571373469703 -0.00107530658699 0.0
0.00035628879157 0.000341354664855 0.0
-0.00312631646565 0.00147399180679 0.0
-0.000371369574783 0.000279095655787 0.0
0.349110380145 -0.150427284472 0.0
0.0382191718375 -0.369002989879 0.0
-0.0592404465487 0.262509681995 0.0
-0.0694179509567 0.269993801305 0.0
-0.00115643218466 -0.000609552749502 0.0
-0.00182167442435 0.00313108431352 0.0
-0.0636564747788 -0.494459635993 0.0
0.111188606061 0.155721084924 0.0
-0.235780641761 0.00833643954646 0.0
-0.2421183169 0.0502541494596 0.0
-0.0757598348974 0.119432430991 0.0
0.00617819783977 0.129259052574 0.0
-0.0411214162032 0.173602139468 0.0
-0.248057091768 -0.234449619636 0.0
-0.232103720691 -0.285382388424 0.0
-0.238146397341 -0.26152985752 0.0
-0.192485980138 0.180690339749 0.0
-0.163161382385 0.202205328554 0.0
-0.181031965893 0.164367795828 0.0
-0.218655233958 -0.017967219941 0.0
-0.195853065867 -0.0277027328177 0.0
-0.206193487763 -0.05251506923 0.0
-0.201846269736 0.165224673316 0.0
-0.221709361406 0.104773978812 0.0
-0.185824649209 0.142281219466 0.0
-0.144737136673 0.121882301072 0.0
-0.142370211788 0.178135747276 0.0
-0.266718495784 -0.126769321417 0.0
-0.269142866671 -0.0709817004024 0.0
-0.259874879702 -0.106865755903 0.0
-0.259115694187 -0.181555148261 0.0
-0.25653813959 -0.155697676506 0.0
0.0517909815254 0.0732446127925 0.0
0.0936366052834 0.125966501591 0.0
-0.143471755661 0.241782720335 0.0
-0.133338897064 0.213874496119 0.0
-0.209939663244 -0.272177484151 0.0
-0.207999667427 -0.320474857736 0.0
-0.187473178172 -0.00321565009171 0.0
-0.172735887862 -0.0241100191682 0.0
-0.0709228539172 0.32603692948 0.0
-0.0607364503536 0.331823932247 0.0
-0.0448077149518 0.341462309594 0.0
0.19614699302 -0.0691922207856 0.0
0.0860290289263 -0.138781829332 0.0
0.230428171982 -0.117011210576 0.0
-0.135159591607 0.0336925209148 0.0
-0.135469842497 0.0532121302541 0.0
-0.106810872425 0.0361082485456 0.0
-0.10704333471 -0.162892109403 0.0
-0.113704573351 -0.136493612552 0.0
-0.072217044485 -0.114093352249 0.0
-0.0319810433521 0.320910691032 0.0
-0.0700417740059 0.305227008291 0.0
-0.0157250168537 -0.230485097348 0.0
-0.038047179922 -0.165564255556 0.0
-0.126489810528 0.0743678510422 0.0
-0.158337085833 0.0738334716899 0.0
-0.113601910645 -0.10679533268 0.0
-0.152123972991 -0.137360433292 0.0
-0.158453437067 -0.442947667176 0.0
-0.175182270785 -0.380471683924 0.0
-0.183843647334 -0.401038381486 0.0
0.133027394853 0.214168357464 0.0
0.0602371543307 0.238999631154 0.0
0.131865927161 0.188979650366 0.0
-0.0994140208354 -0.0425925810167 0.0
-0.130199999825 -0.0623862430979 0.0
-0.130494569782 -0.0423998642508 0.0
-0.0794852766287 0.120673798516 0.0
-0.114535259315 0.130753880026 0.0
-0.101742631641 0.156982957855 0.0
-0.235167646544 0.0980369549533 0.0
-0.223660748424 0.0953305175929 0.0
0.740093115742 0.0152134687458 0.0
0.756536875667 0.00823715807658 0.0
-0.0100980363732 0.0921778746387 0.0
-0.0105956409349 0.114815472114 0.0
-0.0200451532054 -0.154368128161 0.0
-0.0175881037651 -0.121774376732 0.0
-0.0422856582359 -0.00196259527117 0.0
-0.0454588026218 -0.000775242573427 0.0
-0.0174832382101 -0.167899714647 0.0
-0.0603838684993 -0.282519146554 0.0
-0.0339286402475 -0.00203257683675 0.0
-0.0676279979087 -0.00781690463521 0.0
0.75503475954 0.0162491316747 0.0
0.520347242329 0.0562404175342 0.0
-0.0069839922997 0.0627711358471 0.0
-0.0273992862848 0.124839942921 0.0
-0.240878583752 -0.203893036383 0.0
-0.218073870944 0.0200585787712 0.0
-0.17276873533 -0.302990577716 0.0
-0.11480242902 -0.322356429547 0.0
-0.0042872976229 0.253147964704 0.0
0.0083528965356 0.287231605746 0.0
-0.157353679017 -0.084351712637 0.0
-0.120614814004 -0.0831075899697 0.0
-0.145515533027 0.12505572379 0.0
-0.119660221518 0.100349503531 0.0
-0.0930588902636 0.20227496127 0.0
-0.127987106811 0.228942067961 0.0
-0.199842059087 0.125223126584 0.0
-0.208719454172 0.0848210319896 0.0
-0.243561321083 0.0894007150892 0.0
-0.22067011288 0.140624375598 0.0
-0.239120003837 0.0407749954464 0.0
-0.245079127722 0.0724092283563 0.0
-0.266635853797 -0.0179528892645 0.0
-0.258856717118 -0.0220079806427 0.0
-0.112618506778 -0.355158471613 0.0
-0.0972269557233 -0.383473659293 0.0
-0.098267241112 -0.0158765801986 0.0
-0.0746298816831 -0.0157359436085 0.0
0.346567746392 0.10085587029 0.0
0.36615715395 0.106042316866 0.0
-0.0548526080665 0.161194882839 0.0
-0.0392800870351 0.119230655379 0.0
0.73849329142 -0.0196761927093 0.0
0.684995450511 -0.0289346355601 0.0
-0.00593616030445 0.173081528358 0.0
-0.00635457464976 0.1871152042 0.0
-0.00327776234633 -0.0219439561305 0.0
-0.00294582069483 -0.0145485383182 0.0
-0.0262866248358 0.00274381815287 0.0
-0.0201913274645 0.0030598628663 0.0
-0.036055794353 -0.340292466673 0.0
-0.029338958326 -0.27991426819 0.0
-0.0156904979571 -0.0030964510946 0.0
-0.0224574706737 -0.00319285092869 0.0
0.513357219047 0.0555282149338 0.0
0.607174681526 0.0391475619409 0.0
-0.00571519060248 0.0257326904195 0.0
-0.0065951591045 0.0374982382969 0.0
0.576830427188 0.0145028148035 0.0
0.800037466731 0.00106843425035 0.0
-0.0310836035925 0.200310814591 0.0
-0.00779596097839 0.122092055098 0.0
-0.0455716242399 -0.173289845404 0.0
-0.0117424731668 -0.08172780966 0.0
-0.0812978484965 0.000811546867665 0.0
-0.042887244743 0.000255612418363 0.0
-0.124065398501 -0.458575231628 0.0
-0.127068153841 -0.476441068717 0.0
0.235071437774 0.163219960971 0.0
0.118666673216 0.231225119862 0.0
-0.071661098729 -0.0245550797191 0.0
-0.0673032319712 -0.0356703294321 0.0
-0.0472364805584 0.102034026764 0.0
-0.0565856907987 0.0846520631097 0.0
0.238763709391 0.0366345319158 0.0
0.389848619585 0.0341847898925 0.0
0.289004410154 0.0701868468728 0.0
-0.0920149442294 0.270638640189 0.0
-0.0614218966 0.244733066154 0.0
-0.0811650495186 0.233460886429 0.0
-0.138658177624 -0.254317758761 0.0
-0.0930549028445 -0.237143295571 0.0
-0.132495706049 -0.293610510303 0.0
-0.147604586395 0.0055610192471 0.0
-0.11667702299 0.00109394145659 0.0
-0.133414641761 -0.00638318165739 0.0
-0.166590570288 -0.0989605099784 0.0
-0.0989557735599 -0.125938120728 0.0
-0.0831772403712 -0.0511182119522 0.0
-0.103350280416 0.272894986042 0.0
-0.140051359742 0.254394830172 0.0
-0.232441653889 -0.134609297406 0.0
-0.194583295261 -0.148537088757 0.0
-0.218296260767 -0.178985857996 0.0
-0.186744246909 0.0761713843318 0.0
-0.204122553517 0.0509036267004 0.0
0.239700355415 -0.189256559842 0.0
0.254716488578 -0.15246402212 0.0
0.0819995738871 -0.267741748781 0.0
-0.0166970612615 0.336042028222 0.0
-0.0250964104249 0.343750283072 0.0
-0.00699779081041 0.337693950761 0.0
-0.0277031588687 -0.0437176451759 0.0
-0.0445050808872 -0.0726828272171 0.0
-0.0522477143475 -0.0605048011785 0.0
-0.0520089615876 0.026543883622 0.0
-0.0767433554571 0.0320449324104 0.0
-0.0722032977779 0.047454093649 0.0
-0.141187374065 -0.214211183568 0.0
-0.0601754747506 0.268555022014 0.0
-0.176833300451 -0.1139285331 0.0
-0.168812626745 0.102829421934 0.0
-0.211577054579 -0.0600536653431 0.0
-0.226545469005 -0.130302985328 0.0
-0.232928344594 -0.200605778364 0.0
-0.243534518722 -0.0919633644127 0.0
-0.22377128608 -0.0750149325149 0.0
0.824956429676 -0.00316316519293 0.0
-0.00544838742368 0.125333771189 0.0
-0.00782871988526 -0.0542291022887 0.0
-0.0380768144748 0.000756119597016 0.0
0.193863757458 0.109175122456 0.0
0.140490920419 0.15265183754 0.0
-0.172377694931 -0.332018544095 0.0
-0.1923921833 -0.363374730691 0.0
-0.103056223833 0.217946529878 0.0
-0.112775267544 0.189930135189 0.0
-0.149187160641 -0.0173038763781 0.0
-0.150053780873 -0.0325104021952 0.0
0.433169390449 -0.103962565665 0.0
0.649191181952 -0.0363492062625 0.0
-0.0163176026204 0.290197412486 0.0
-0.0091668128289 0.185481979939 0.0
-0.0108142081443 -0.0250206554652 0.0
-0.00191415507506 -0.00743420830151 0.0
-0.0320362873227 0.0114149655228 0.0
-0.0127890857078 0.00231641920487 0.0
-0.0377465556647 -0.373425863393 0.0
-0.0849549155537 -0.504094666983 0.0
-0.00901614761599 -0.00192236218813 0.0
-0.0243992988257 -0.0110938672886 0.0
0.451882945 0.0634521261884 0.0
0.194640072361 0.163412757006 0.0
-0.00376048661122 0.0143338694694 0.0
-0.0171277899445 0.0369526721945 0.0
-0.0298791700912 0.321147610239 0.0
0.400226799958 -0.0824955476678 0.0
-0.0787461355255 0.0206878977126 0.0
-0.038590682139 -0.0845436231575 0.0
-0.0625486719721 -0.400727068908 0.0
-0.0942147741524 -0.489837691612 0.0
0.0368297032137 0.296387311022 0.0
0.0838231922109 0.246441751884 0.0
-0.0607246036662 -0.048284165656 0.0
-0.0416226499254 -0.0265680731373 0.0
-0.0655759749087 0.0658574455891 0.0
-0.0386674215923 0.0545723503506 0.0
-0.00125024989497 -0.0033895978566 0.0
0.554839897135 -0.0627949820459 0.0
-0.00730278114512 0.00190381875759 0.0
-0.0220318973815 0.208196199061 0.0
-0.0491084391004 -0.435721403328 0.0
-0.00435044067849 -0.00122680306153 0.0
0.321149421227 0.0892609219533 0.0
-0.00271710776324 0.0074319847331 0.0
0.454685547278 0.00246601338758 0.0
-0.0485471039683 0.26150432651 0.0
-0.0664870666833 -0.179331029011 0.0
-0.104527947152 0.00702715926685 0.0
-0.00616275990731 -0.0095750346795 0.0
-0.014758283761 0.0090002274991 0.0
0.24198692144 -0.213737614885 0.0
-0.0424807513514 0.295289384431 0.0
-0.0588801612092 -0.501442750349 0.0
-0.00925066457412 -0.00677319738782 0.0
0.0302447759833 0.223970682602 0.0
-0.0105972841905 0.0151062649584 0.0
-0.0309335976011 -0.310245280892 0.0
0.00384282846837 0.31787980233 0.0
-0.0845400354189 -0.0753478002727 0.0
-0.0955100831314 0.0727934361244 0.0
-0.00544651436126 0.00943501602319 0.0
-0.102269892577 0.011281249818 0.0
-0.144123327095 0.259723270944 0.0
-0.174158340211 0.219102619263 0.0
-0.209627006464 -0.223919450318 0.0
-0.196053557116 0.0227956524271 0.0
0.29357335608 0.0983375232719 0.0
-0.0745700460489 0.198772304983 0.0
0.222794803421 0.140291186453 0.0
-0.0837623411601 0.175406295969 0.0
-0.13465156932 -0.336356038634 0.0
-0.12252293168 -0.014901835009 0.0
-0.159490020912 -0.38439019284 0.0
-0.123546210618 -0.0262780907084 0.0
0.80554128608 -0.010623884297 0.0
0.593996509379 -0.0420879502431 0.0
-0.00503296869424 0.142009259775 0.0
-0.0158557928997 0.256331152431 0.0
0.418363304106 0.0896347320706 0.0
0.521395117912 -0.0413933309312 0.0
-0.0275656899537 0.281229433226 0.0
-0.0706488664686 -0.380778791305 0.0
-0.0222788564358 0.0778764278179 0.0
-0.0481117845603 -0.0108193365746 0.0
0.716551092642 0.0220202622323 0.0
-0.019634506448 -0.204728302709 0.0
-0.00599058090535 0.0462859606154 0.0
-0.0274861665108 -0.00225805695875 0.0
-0.00306425568524 -0.0270051672885 0.0
-0.0157242055071 -0.0547571739475 0.0
-0.028739978593 0.00163915651323 0.0
-0.0525116237704 0.00874377037952 0.0
-0.0323483345653 -0.0928579665166 0.0
-0.0760101202823 0.0121506703747 0.0
0.109031681159 0.0209242074788 0.0
-0.118187043812 0.277552529574 0.0
-0.175539704284 -0.242242688698 0.0
-0.173072957478 0.0151486059772 0.0
-0.12982750303 0.0665448825929 0.0
-0.178346566426 0.00844947123472 0.0
-0.20131808754 0.179634619626 0.0
0.215953473316 -0.221966718037 0.0
-0.0220816626676 0.320316333035 0.0
-0.0653780583074 -0.48895439642 0.0
-0.0160797074093 -0.0240009521484 0.0
0.0463390947615 0.250930543775 0.0
-0.0319522615288 0.0190395889668 0.0
-0.0231185523462 -0.0167339325872 0.0
-0.0241621435264 0.0323093456352 0.0
0.327972124458 -0.0245423144386 0.0
0.196032759749 -0.0130903422011 0.0
-0.0629773872442 0.304132693022 0.0
-0.0902937328201 0.301659838728 0.0
-0.132727555732 -0.210200553756 0.0
-0.0873107934727 -0.175003281394 0.0
-0.122232139247 0.0178630467348 0.0
-0.150480705884 0.0216302498531 0.0
-0.0413051712964 0.224116607022 0.0
-0.207543555732 -0.256467455193 0.0
-0.172916702308 0.135760179355 0.0
-0.191793563585 -0.0829239563301 0.0
0.0448122926139 -0.371331725753 0.0
-0.0206534525358 0.297294290719 0.0
-0.0146024417999 -0.0154568744909 0.0
-0.0220950682526 0.0202081781254 0.0
-0.230671722069 -0.00815726114601 0.0
0.658311624578 -0.0166184060605 0.0
0.833584468591 -0.00609005535833 0.0
-0.0179248439607 0.218276180547 0.0
-0.00444112988303 0.126595474383 0.0
0.48622701754 -0.0232759728079 0.0
-0.0384736702434 0.277208192579 0.0
-0.0207725752992 -0.0848079520199 0.0
-0.00467821822789 -0.0362168613395 0.0
-0.0619018034158 0.00523653997566 0.0
-0.0321913422603 0.00103972269207 0.0
-0.0488589569505 -0.133270068101 0.0
-0.0927119652311 0.0111509099161 0.0