# vtk DataFile Version 2.0
2D Simulation Python
ASCII
DATASET UNSTRUCTURED_GRID
FIELD FieldData 1
NODES 1 2 int
142 242

POINTS 142 double
0.0 0.0 0.0
1.0 0.0 0.0
1.0 1.0 0.0
0.0 1.0 0.0
0.09999999999981467 0.0 0.0
0.1999999999995579 0.0 0.0
0.2999999999992664 0.0 0.0
0.3999999999989749 0.0 0.0
0.4999999999986943 0.0 0.0
0.5999999999989468 0.0 0.0
0.69999999999921 0.0 0.0
0.7999999999994734 0.0 0.0
0.8999999999997368 0.0 0.0
1.0 0.09999999999981467 0.0
1.0 0.1999999999995579 0.0
1.0 0.2999999999992664 0.0
1.0 0.3999999999989749 0.0
1.0 0.4999999999986943 0.0
1.0 0.5999999999989468 0.0
1.0 0.69999999999921 0.0
1.0 0.7999999999994734 0.0
1.0 0.8999999999997368 0.0
0.8999999999995836 1.0 0.0
0.7999999999999998 1.0 0.0
0.7000000000006934 1.0 0.0
0.6000000000013869 1.0 0.0
0.5000000000020587 1.0 0.0
0.4000000000016644 1.0 0.0
0.3000000000012483 1.0 0.0
0.2000000000008322 1.0 0.0
0.100000000000416 1.0 0.0
0.0 0.8999999999995836 0.0
0.0 0.7999999999999998 0.0
0.0 0.7000000000006934 0.0
0.0 0.6000000000013869 0.0
0.0 0.5000000000020587 0.0
0.0 0.4000000000016644 0.0
0.0 0.3000000000012483 0.0
0.0 0.2000000000008322 0.0
0.0 0.100000000000416 0.0
0.5014563362473403 0.5005349146734296 0.0
0.700546275200524 0.699166855865603 0.0
0.29441453895085934 0.7046440731518775 0.0
0.6998113901344318 0.3016509312121945 0.0
0.29806271211674307 0.2930466533604185 0.0
0.4900184313625784 0.7874950341515937 0.0
0.2144456954971941 0.49197507366657933 0.0
0.7944725384901308 0.5088404729287834 0.0
0.507266032680018 0.20595883088685613 0.0
0.8304044224174203 0.8303772613774109 0.0
0.16926283173306844 0.8307817878712624 0.0
0.8303873362440117 0.16965242969070785 0.0
0.16947982608499323 0.16924704214442343 0.0
0.6399613666158117 0.8519094675181835 0.0
0.14771181493871785 0.6410107199223807 0.0
0.3595118217805211 0.8469588642579138 0.0
0.8475915258350354 0.6396608717349261 0.0
0.8531328788080936 0.3600823672380419 0.0
0.15462139929015853 0.3601101814206488 0.0
0.35930566826326593 0.14548872674783703 0.0
0.6392090027876751 0.15341825987056085 0.0
0.5608341076158609 0.6413040054028867 0.0
0.36824043788187266 0.5829726350031157 0.0
0.6524379326851752 0.4618122725816848 0.0
0.43494734232313187 0.34370600061828105 0.0
0.4176283070326549 0.654849428657984 0.0
0.6686991496016157 0.549904214955401 0.0
0.36951126543045537 0.4194806419740078 0.0
0.5357752242824678 0.34983056200677354 0.0
0.45745922124331523 0.8955178146103737 0.0
0.10510361781012446 0.4579570029699403 0.0
0.8969157550552578 0.542480554187031 0.0
0.5423496672934697 0.10317826358622982 0.0
0.7402684582595735 0.903037629779819 0.0
0.09674839959096176 0.740631433771466 0.0
0.9032328110858281 0.2597077014269714 0.0
0.25950950138253515 0.09638292463787604 0.0
0.9019521216111414 0.7387725313193008 0.0
0.26102270599746197 0.9020379032586839 0.0
0.738690994794381 0.09819756778088412 0.0
0.09833279225756525 0.2612075232467692 0.0
0.6016268484711734 0.743042496464708 0.0
0.2551719405978777 0.6057970828306383 0.0
0.7480158961467039 0.39983684597645586 0.0
0.3952701285735273 0.2467487455629026 0.0
0.3886726456434581 0.7453350904312002 0.0
0.7478025744789585 0.6057790874474784 0.0
0.26084196942025284 0.39029381222656767 0.0
0.6031387436272313 0.2570140714959822 0.0
0.9155026226378833 0.9154606464490298 0.0
0.08448880416975493 0.9155714583768044 0.0
0.9154670232085054 0.08449395167409796 0.0
0.08448426633559802 0.08450563612005271 0.0
0.5633876116615697 0.9199594065658416 0.0
0.0802034081351096 0.563785837239765 0.0
0.9205134829990309 0.43660771668448295 0.0
0.43652449648225466 0.07923094365225664 0.0
0.7926064627755639 0.7186335857681578 0.0
0.2796358297214122 0.7933337949525677 0.0
0.7181654457439208 0.20830783384907864 0.0
0.20811761845794927 0.2799940439504467 0.0
0.7180685804100405 0.7926363072058807 0.0
0.20588807272323803 0.7195907181572003 0.0
0.7933832091032214 0.2822270781870041 0.0
0.28092959429341535 0.20452426516891992 0.0
0.4778571016860116 0.5882109263908768 0.0
0.5808021135895818 0.5436658758333571 0.0
0.4141751563752235 0.5037588774989815 0.0
0.563514350332782 0.4391185202183968 0.0
0.6437140222878992 0.632299564849116 0.0
0.3435553499673239 0.6584831673183517 0.0
0.6350596354018634 0.3652885585217338 0.0
0.3501198558126515 0.33985109154251414 0.0
0.6504010006178484 0.9339373961054487 0.0
0.06607705845886444 0.6506750676034971 0.0
0.9341726311325653 0.34958169408258943 0.0
0.3494983768126686 0.06557943435290545 0.0
0.9282104532478554 0.6431676730883915 0.0
0.6431294754454169 0.07190965934590912 0.0
0.35679128078045086 0.927950582174174 0.0
0.07240230334653261 0.35702133187428864 0.0
0.8352489546439792 0.9274448082605975 0.0
0.07249163165059982 0.8353599612552042 0.0
0.9274662074965179 0.16474151269989276 0.0
0.16471681682137282 0.07247422804881035 0.0
0.9272020812960476 0.8347796652327227 0.0
0.8347784082482348 0.07280090093590225 0.0
0.16516809847885855 0.9272736954483765 0.0
0.0728176827846701 0.16521071089652514 0.0
0.4925328871231334 0.6954901519390444 0.0
0.31048587731328203 0.500082156143341 0.0
0.7232460637076921 0.5023719179673869 0.0
0.49547484560038624 0.2800451375915867 0.0
0.5509460330928937 0.8382078076373588 0.0
0.16197372445887276 0.5521351583648031 0.0
0.8406319871606387 0.4490721652850831 0.0
0.44839573318005876 0.158320166602963 0.0
0.42533028292982356 0.8188711648146195 0.0
0.18323501558063904 0.4261207432030638 0.0
0.8211698123414243 0.5735534249440135 0.0
0.5730188414171227 0.18002846548640739 0.0
0.46867138066882374 0.4246510962232309 0.0

CELLS 242 968
3 141 68 108
3 1 13 91
3 0 4 92
3 2 22 89
3 3 31 90
3 1 91 12
3 0 92 39
3 2 89 21
3 3 90 30
3 64 68 141
3 65 129 85
3 66 131 86
3 67 130 87
3 68 132 88
3 62 107 105
3 62 105 65
3 63 106 108
3 63 66 106
3 129 45 85
3 130 46 87
3 131 47 86
3 132 48 88
3 54 82 102
3 53 81 101
3 59 84 104
3 57 83 103
3 42 102 82
3 41 101 81
3 44 104 84
3 43 103 83
3 56 97 86
3 55 98 85
3 60 99 88
3 58 100 87
3 64 141 67
3 26 27 69
3 35 36 70
3 17 18 71
3 8 9 72
3 18 117 71
3 9 118 72
3 27 119 69
3 36 120 70
3 63 131 66
3 64 132 68
3 41 86 97
3 42 85 98
3 43 88 99
3 44 87 100
3 62 65 110
3 64 67 112
3 67 141 107
3 40 105 107
3 40 108 106
3 56 71 117
3 60 72 118
3 55 69 119
3 58 70 120
3 23 24 73
3 32 33 74
3 14 15 75
3 5 6 76
3 19 20 77
3 10 11 79
3 28 29 78
3 37 38 80
3 26 69 93
3 35 70 94
3 17 71 95
3 8 72 96
3 56 77 97
3 55 78 98
3 60 79 99
3 58 80 100
3 45 133 69
3 46 134 70
3 47 135 71
3 48 136 72
3 61 109 81
3 62 110 82
3 63 111 83
3 64 112 84
3 49 73 101
3 50 74 102
3 51 75 103
3 52 76 104
3 41 81 109
3 42 82 110
3 43 83 111
3 44 84 112
3 61 106 109
3 66 109 106
3 63 108 111
3 68 111 108
3 25 26 93
3 34 35 94
3 16 17 95
3 7 8 96
3 45 137 85
3 47 139 86
3 46 138 87
3 48 140 88
3 23 73 121
3 32 74 122
3 14 75 123
3 5 76 124
3 20 125 77
3 11 126 79
3 29 127 78
3 38 128 80
3 54 102 74
3 53 101 73
3 59 104 76
3 57 103 75
3 49 97 77
3 50 98 78
3 51 99 79
3 52 100 80
3 13 14 123
3 22 23 121
3 4 5 124
3 31 32 122
3 20 21 125
3 11 12 126
3 29 30 127
3 38 39 128
3 69 133 93
3 70 134 94
3 71 135 95
3 72 136 96
3 13 123 91
3 4 124 92
3 22 121 89
3 31 122 90
3 21 89 125
3 12 91 126
3 30 90 127
3 39 92 128
3 49 101 97
3 50 102 98
3 51 103 99
3 52 104 100
3 61 81 129
3 62 82 130
3 63 83 131
3 64 84 132
3 45 69 137
3 46 70 138
3 55 137 69
3 58 138 70
3 47 71 139
3 48 72 140
3 56 139 71
3 60 140 72
3 24 113 73
3 33 114 74
3 55 119 78
3 53 73 113
3 54 74 114
3 56 117 77
3 58 120 80
3 60 118 79
3 28 78 119
3 19 77 117
3 37 80 120
3 10 79 118
3 15 115 75
3 6 116 76
3 57 75 115
3 59 76 116
3 45 129 81
3 46 130 82
3 47 131 83
3 48 132 84
3 61 129 105
3 65 105 129
3 62 130 107
3 67 107 130
3 49 121 73
3 50 122 74
3 49 77 125
3 51 123 75
3 50 78 127
3 52 124 76
3 51 79 126
3 52 80 128
3 53 133 81
3 45 81 133
3 54 134 82
3 46 82 134
3 47 83 135
3 57 135 83
3 59 136 84
3 48 84 136
3 65 85 110
3 42 110 85
3 66 86 109
3 41 109 86
3 67 87 112
3 68 88 111
3 44 112 87
3 43 111 88
3 41 97 101
3 42 98 102
3 43 99 103
3 44 100 104
3 49 89 121
3 50 90 122
3 49 125 89
3 50 127 90
3 51 91 123
3 51 126 91
3 52 92 124
3 52 128 92
3 40 106 105
3 61 105 106
3 25 93 113
3 34 94 114
3 53 113 93
3 54 114 94
3 16 95 115
3 7 96 116
3 57 115 95
3 59 116 96
3 24 25 113
3 33 34 114
3 15 16 115
3 6 7 116
3 18 19 117
3 9 10 118
3 27 28 119
3 36 37 120
3 55 85 137
3 56 86 139
3 58 87 138
3 60 88 140
3 53 93 133
3 54 94 134
3 57 95 135
3 59 96 136
3 40 141 108
3 40 107 141

CELL_TYPES 242
5 
5 
5 
5 
5 
5 
5 
5 
5 
5 
5 
5 
5 
5 
5 
5 
5 
5 
5 
5 
5 
5 
5 
5 
5 
5 
5 
5 
5 
5 
5 
5 
5 
5 
5 
5 
5 
5 
5 
5 
5 
5 
5 
5 
5 
5 
5 
5 
5 
5 
5 
5 
5 
5 
5 
5 
5 
5 
5 
5 
5 
5 
5 
5 
5 
5 
5 
5 
5 
5 
5 
5 
5 
5 
5 
5 
5 
5 
5 
5 
5 
5 
5 
5 
5 
5 
5 
5 
5 
5 
5 
5 
5 
5 
5 
5 
5 
5 
5 
5 
5 
5 
5 
5 
5 
5 
5 
5 
5 
5 
5 
5 
5 
5 
5 
5 
5 
5 
5 
5 
5 
5 
5 
5 
5 
5 
5 
5 
5 
5 
5 
5 
5 
5 
5 
5 
5 
5 
5 
5 
5 
5 
5 
5 
5 
5 
5 
5 
5 
5 
5 
5 
5 
5 
5 
5 
5 
5 
5 
5 
5 
5 
5 
5 
5 
5 
5 
5 
5 
5 
5 
5 
5 
5 
5 
5 
5 
5 
5 
5 
5 
5 
5 
5 
5 
5 
5 
5 
5 
5 
5 
5 
5 
5 
5 
5 
5 
5 
5 
5 
5 
5 
5 
5 
5 
5 
5 
5 
5 
5 
5 
5 
5 
5 
5 
5 
5 
5 
5 
5 
5 
5 
5 
5 
5 
5 
5 
5 
5 
5 
5 
5 
5 
5 
5 
5 
5 
5 
5 
5 
5 
5 

POINT_DATA 142
VECTORS vector double
0.0 0.0 0.0
0.0 0.0 0.0
1.0 0.0 0.0
1.0 0.0 0.0
0.0 0.0 0.0
0.0 0.0 0.0
0.0 0.0 0.0
0.0 0.0 0.0
0.0 0.0 0.0
0.0 0.0 0.0
0.0 0.0 0.0
0.0 0.0 0.0
0.0 0.0 0.0
0.0 0.0 0.0
0.0 0.0 0.0
0.0 0.0 0.0
0.0 0.0 0.0
0.0 0.0 0.0
0.0 0.0 0.0
0.0 0.0 0.0
0.0 0.0 0.0
0.0 0.0 0.0
1.0 0.0 0.0
1.0 0.0 0.0
1.0 0.0 0.0
1.0 0.0 0.0
1.0 0.0 0.0
1.0 0.0 0.0
1.0 0.0 0.0
1.0 0.0 0.0
1.0 0.0 0.0
0.0 0.0 0.0
0.0 0.0 0.0
0.0 0.0 0.0
0.0 0.0 0.0
0.0 0.0 0.0
0.0 0.0 0.0
0.0 0.0 0.0
0.0 0.0 0.0
0.0 0.0 0.0
-0.21621884487 0.0513008854602 0.0
-0.135206366427 -0.132634729953 0.0
-0.0997018688098 0.218853245902 0.0
-0.117336421227 -0.0612573742635 0.0
-0.0873657369835 0.0505413900389 0.0
0.0648178074099 0.107454381633 0.0
-0.0942242634006 0.150585627637 0.0
-0.205139581332 -0.242587745508 0.0
-0.0891421747338 0.00073323617404 0.0
0.0699836764767 -0.260762723911 0.0
-0.0466257994912 0.234077738011 0.0
-0.0190127387708 -0.0196730810863 0.0
-0.0227124661309 0.0200360524059 0.0
0.26892909458 -0.00161888557724 0.0
-0.0524797660881 0.21259813211 0.0
0.114634857528 0.108658881232 0.0
-0.162035095689 -0.344090269369 0.0
-0.0591189444694 -0.101488993475 0.0
-0.0358400700513 0.079990859923 0.0
-0.0577348866546 0.0132847262792 0.0
-0.0610657420972 -0.016326887579 0.0
-0.177209683054 0.038284060845 0.0
-0.154234890551 0.167296747645 0.0
-0.235794404033 -0.0930958152347 0.0
-0.147504929603 0.03655614424 0.0
-0.134058936039 0.157578781585 0.0
-0.244979728037 -0.113871690105 0.0
-0.155823272665 0.0903189246238 0.0
-0.172783229511 -0.00153389775407 0.0
0.40815007536 0.0472490015387 0.0
-0.0266991238502 0.102910140901 0.0
-0.0934382037307 -0.240709179106 0.0
-0.0484668576001 -0.00370676507913 0.0
0.427968513943 -0.0739595538597 0.0
-0.0666729963298 0.251193408 0.0
-0.0157406393713 -0.0240323360761 0.0
-0.0248757199877 0.00843218449444 0.0
-0.108603074232 -0.498230992096 0.0
0.217513630888 0.111212555448 0.0
-0.0215580642359 -0.0101931279011 0.0
-0.0172682255702 0.0320666379515 0.0
-0.0158972496803 0.0079489515414 0.0
-0.10784272023 0.20582452736 0.0
-0.153956880018 -0.123438590804 0.0
-0.102528706603 0.0270451359749 0.0
-0.0424953825275 0.163496933255 0.0
-0.223898778324 -0.222741599886 0.0
-0.0955789587428 0.101724496493 0.0
-0.118978807133 -0.0285198408621 0.0
-0.0466752892424 -0.386772638497 0.0
-0.18934341784 0.279315348139 0.0
-0.000399100187826 -0.000694739554744 0.0
-0.00291096592734 0.00305588469557 0.0
0.56891389898 0.0195706676424 0.0
-0.0241361961887 0.134308298912 0.0
-0.049055670955 -0.101177971086 0.0
-0.0365472499821 0.00302393548896 0.0
-0.145214510246 -0.314567144565 0.0
-0.044169215772 0.207347055862 0.0
-0.058998853237 -0.0372496686899 0.0
-0.0565960814812 0.0533010161908 0.0
0.0730895521323 -0.123457839399 0.0
-0.0993883825738 0.256621376446 0.0
-0.0702752449119 -0.0626852602417 0.0
-0.0557547233664 0.0318009420572 0.0
-0.18711448997 0.0957703999374 0.0
-0.235655903938 -0.0061510127619 0.0
-0.185816490713 0.111426185237 0.0
-0.222813145 -0.0132654993645 0.0
-0.201296589252 -0.069753465777 0.0
-0.124971740065 0.190072927778 0.0
-0.176442318175 -0.0678948298477 0.0
-0.1224118212 0.0723145980536 0.0
0.6343002137 -0.00821878111177 0.0
-0.0234469704997 0.157656556802 0.0
-0.0139368914602 -0.0429588775818 0.0
-0.0268904046238 0.00381255431114 0.0
-0.101758048753 -0.359336688902 0.0
-0.0247836911887 -0.00598241077187 0.0
0.502700415307 0.0386955887625 0.0
-0.0165675989303 0.0478975586439 0.0
0.408644518327 -0.112070742215 0.0
-0.0437090146559 0.330905529344 0.0
-0.00078130120687 -0.000309856055542 0.0
-0.00619453561132 0.00191516099673 0.0
-0.013828316398 -0.592832665725 0.0
-0.00107060103029 -0.00110207699893 0.0
0.177926453977 0.126976408258 0.0
-0.00399584514807 0.00595207297137 0.0
-0.102550150399 0.109239259723 0.0
-0.132395461856 0.147592180558 0.0
-0.230570610479 -0.157672474837 0.0
-0.138856407776 0.00336389227856 0.0
0.213439815848 0.0232921214249 0.0
-0.0602987673627 0.183336351179 0.0
-0.100864966346 -0.160251113744 0.0
-0.0726403929639 0.0035869008568 0.0
0.0991244966127 0.100294701607 0.0
-0.0665314712987 0.114115884599 0.0
-0.199581990316 -0.291648940814 0.0
-0.0801115049685 -0.0111119093338 0.0
-0.192142902081 0.0467042356875 0.0

SCALARS scalar1 double
LOOKUP_TABLE default
0.0180620610376
0.00503964016191
-12.1067761603
-14.2615440558
-0.00214592512974
0.205741085626
0.30846210882
0.467175545669
0.482210061238
0.428764667155
0.230621001941
0.139908520732
-0.0598305546104
-0.0668892270227
0.116262702177
0.214964572969
1.01765248444
1.99287909069
4.30799472576
6.67557725435
9.37615583116
6.57225002482
-14.8090443932
-6.56922006439
-6.16021598843
-5.37253848769
-5.80794901548
-6.17059233625
-8.37232427057
-10.5042334758
-17.7906360449
3.50493408442
4.3251056682
3.2105130157
2.1439363461
1.43047132633
0.898283847076
0.472821382459
0.237425863047
-0.00329284421513
-0.774568425084
-3.37777925384
-0.835782046668
0.390923102242
0.179752931097
-2.79260610273
0.142011993898
0.0807805779707
0.279346834506
-5.36328133446
-1.11218688175
0.32139642025
0.22187047105
-4.26265141978
0.481149407941
-3.23027845571
-0.856911797759
0.817164075445
0.322740321631
0.29532263029
0.341992313324
-2.10587290436
-0.699182735086
-0.455073854403
0.0359871219511
-1.31008955466
-1.39177400619
-0.116909805128
0.0364157703189
-4.85946527301
0.594738483201
1.53973939476
0.36213535783
-5.03216388255
1.11889612997
0.46046491798
0.259441970087
-1.1987246353
-5.73234502781
0.2798538273
0.309366023942
-3.17543694036
-0.215987265484
0.410295826125
0.213225121642
-1.71414920372
-1.87577301194
0.127709157813
0.301366863461
-7.18894132985
-3.86164726786
0.0678570586784
0.0919526212329
-4.96934379474
1.02516275084
1.29553663527
0.379219357655
-3.60174592225
-1.62201935543
0.39437605441
0.244542196459
-4.31351636288
-0.23505953603
0.554100763801
0.243794553445
-1.25486543057
-1.29428273755
-0.531973204993
-0.392217602765
-2.4207213953
-0.896155070609
0.118195955913
0.0857632433136
-5.06553337888
1.51776723923
0.774610865199
0.341576891866
2.15086017393
0.334503685286
-6.12299382439
0.512086357172
-6.1031175323
0.924330180648
0.188631705549
0.168156989833
-2.32474431175
0.162266762014
-6.70034117038
0.183808620698
-2.04502861369
-0.191997529211
-0.527091855435
0.179401974741
-3.79727913531
0.377892705245
0.884881180869
0.308506675652
-2.9742414804
0.276431540416
-0.332417319441
0.321318577791
-0.274883768077

SCALARS scalar2 double
LOOKUP_TABLE default
0.0180620610376
0.00503964016191
-12.1067761603
-14.2615440558
-0.00214592512974
0.205741085626
0.30846210882
0.467175545669
0.482210061238
0.428764667155
0.230621001941
0.139908520732
-0.0598305546104
-0.0668892270227
0.116262702177
0.214964572969
1.01765248444
1.99287909069
4.30799472576
6.67557725435
9.37615583116
6.57225002482
-14.8090443932
-6.56922006439
-6.16021598843
-5.37253848769
-5.80794901548
-6.17059233625
-8.37232427057
-10.5042334758
-17.7906360449
3.50493408442
4.3251056682
3.2105130157
2.1439363461
1.43047132633
0.898283847076
0.472821382459
0.237425863047
-0.00329284421513
-0.774568425084
-3.37777925384
-0.835782046668
0.390923102242
0.179752931097
-2.79260610273
0.142011993898
0.0807805779707
0.279346834506
-5.36328133446
-1.11218688175
0.32139642025
0.22187047105
-4.26265141978
0.481149407941
-3.23027845571
-0.856911797759
0.817164075445
0.322740321631
0.29532263029
0.341992313324
-2.10587290436
-0.699182735086
-0.455073854403
0.0359871219511
-1.31008955466
-1.39177400619
-0.116909805128
0.0364157703189
-4.85946527301
0.594738483201
1.53973939476
0.36213535783
-5.03216388255
1.11889612997
0.46046491798
0.259441970087
-1.1987246353
-5.73234502781
0.2798538273
0.309366023942
-3.17543694036
-0.215987265484
0.410295826125
0.213225121642
-1.71414920372
-1.87577301194
0.127709157813
0.301366863461
-7.18894132985
-3.86164726786
0.0678570586784
0.0919526212329
-4.96934379474
1.02516275084
1.29553663527
0.379219357655
-3.60174592225
-1.62201935543
0.39437605441
0.244542196459
-4.31351636288
-0.23505953603
0.554100763801
0.243794553445
-1.25486543057
-1.29428273755
-0.531973204993
-0.392217602765
-2.4207213953
-0.896155070609
0.118195955913
0.0857632433136
-5.06553337888
1.51776723923
0.774610865199
0.341576891866
2.15086017393
0.334503685286
-6.12299382439
0.512086357172
-6.1031175323
0.924330180648
0.188631705549
0.168156989833
-2.32474431175
0.162266762014
-6.70034117038
0.183808620698
-2.04502861369
-0.191997529211
-0.527091855435
0.179401974741
-3.79727913531
0.377892705245
0.884881180869
0.308506675652
-2.9742414804
0.276431540416
-0.332417319441
0.321318577791
-0.274883768077

SCALARS scalar3 double
LOOKUP_TABLE default
0.0
0.0
0.0
0.0
0.0
0.0
0.0
0.0
0.0
0.0
0.0
0.0
0.0
0.0
0.0
0.0
0.0
0.0
0.0
0.0
0.0
0.0
0.0
0.0
0.0
0.0
0.0
0.0
0.0
0.0
0.0
0.0
0.0
0.0
0.0
0.0
0.0
0.0
0.0
0.0
-0.0591651760466
-0.0938225735247
-0.0607876041228
-0.0151608708087
-0.0133840685401
-0.0956325133141
-0.0229517977898
-0.0350985977379
-0.0101990804145
-0.0716836968682
-0.0416886437242
-0.000994026425296
-0.00168523667884
-0.0900380639259
-0.0214591275696
-0.0750375378046
-0.0446401592428
-0.00738211925584
-0.00767024086676
-0.00425200305667
-0.00446504285505
-0.09094251995
-0.0599915420334
-0.047352042133
-0.0264424124172
-0.078288076116
-0.0670058402017
-0.0339907237242
-0.0293315635794
-0.071663980191
-0.00629915396215
-0.0148387347488
-0.0025755410163
-0.0687053235955
-0.015056818215
-0.00090663290431
-0.00110787548485
-0.0363221891314
-0.0563400595728
-0.000851140433735
-0.00165800567176
-0.104262864398
-0.0418943214848
-0.0238119779576
-0.0128414616261
-0.0824733393968
-0.0679232410304
-0.0192508436404
-0.0142021492049
-0.0341314766725
-0.0238423111393
0.000121719506612
1.73270699336e-06
-0.060883784104
-0.00632587988367
-0.0046794179561
-0.0016732702936
-0.0772820763158
-0.0645357018586
-0.00576268532766
-0.00712741676738
-0.0961518930545
-0.04159388113
-0.00672290250709
-0.0059954597243
-0.0758464348742
-0.0711531362177
-0.0527405860462
-0.0466612238385
-0.0887084980063
-0.0657832923858
-0.0288923866303
-0.0214711464825
-0.0520512369172
-0.00641664258343
-0.00153444993289
-0.000991117539632
-0.0163738086456
-0.0011154328746
-0.0500284135231
-0.00229044327729
-0.0470356648804
-0.015581174974
-2.94681385425e-06
-0.000254435941739
-0.0312679380873
-4.26677641994e-05
-0.0366658471825
-0.000323280982015
-0.0934366904392
-0.0386030846516
-0.0475974344317
-0.0186951643243
-0.0917222844032
-0.0187590472115
-0.0170059490453
-0.00603452774737
-0.0848765987505
-0.0139404655386
-0.0408075979438
-0.00748314906066
-0.041992909752

