# vtk DataFile Version 2.0
2D Simulation Python
ASCII
DATASET UNSTRUCTURED_GRID
FIELD FieldData 1
NODES 1 2 int
525 968

POINTS 525 double
0.0 0.0 0.0
1.0 0.0 0.0
1.0 1.0 0.0
0.0 1.0 0.0
0.04999999999989927 0.0 0.0
0.09999999999981467 0.0 0.0
0.1499999999997036 0.0 0.0
0.1999999999995579 0.0 0.0
0.2499999999994121 0.0 0.0
0.2999999999992664 0.0 0.0
0.3499999999991207 0.0 0.0
0.3999999999989749 0.0 0.0
0.4499999999988346 0.0 0.0
0.4999999999986943 0.0 0.0
0.5499999999988205 0.0 0.0
0.5999999999989468 0.0 0.0
0.6499999999990784 0.0 0.0
0.69999999999921 0.0 0.0
0.7499999999993416 0.0 0.0
0.7999999999994734 0.0 0.0
0.8499999999996051 0.0 0.0
0.8999999999997368 0.0 0.0
0.9499999999998684 0.0 0.0
1.0 0.04999999999989927 0.0
1.0 0.09999999999981467 0.0
1.0 0.1499999999997036 0.0
1.0 0.1999999999995579 0.0
1.0 0.2499999999994121 0.0
1.0 0.2999999999992664 0.0
1.0 0.3499999999991207 0.0
1.0 0.3999999999989749 0.0
1.0 0.4499999999988346 0.0
1.0 0.4999999999986943 0.0
1.0 0.5499999999988205 0.0
1.0 0.5999999999989468 0.0
1.0 0.6499999999990784 0.0
1.0 0.69999999999921 0.0
1.0 0.7499999999993416 0.0
1.0 0.7999999999994734 0.0
1.0 0.8499999999996051 0.0
1.0 0.8999999999997368 0.0
1.0 0.9499999999998684 0.0
0.9499999999998356 1.0 0.0
0.8999999999995836 1.0 0.0
0.8499999999998515 1.0 0.0
0.7999999999999998 1.0 0.0
0.7500000000003858 1.0 0.0
0.7000000000006934 1.0 0.0
0.6500000000010593 1.0 0.0
0.6000000000013869 1.0 0.0
0.5500000000016854 1.0 0.0
0.5000000000020587 1.0 0.0
0.4500000000018616 1.0 0.0
0.4000000000016644 1.0 0.0
0.3500000000014563 1.0 0.0
0.3000000000012483 1.0 0.0
0.2500000000010403 1.0 0.0
0.2000000000008322 1.0 0.0
0.1500000000006241 1.0 0.0
0.100000000000416 1.0 0.0
0.05000000000020799 1.0 0.0
0.0 0.9499999999998356 0.0
0.0 0.8999999999995836 0.0
0.0 0.8499999999998515 0.0
0.0 0.7999999999999998 0.0
0.0 0.7500000000003858 0.0
0.0 0.7000000000006934 0.0
0.0 0.6500000000010593 0.0
0.0 0.6000000000013869 0.0
0.0 0.5500000000016854 0.0
0.0 0.5000000000020587 0.0
0.0 0.4500000000018616 0.0
0.0 0.4000000000016644 0.0
0.0 0.3500000000014563 0.0
0.0 0.3000000000012483 0.0
0.0 0.2500000000010403 0.0
0.0 0.2000000000008322 0.0
0.0 0.1500000000006241 0.0
0.0 0.100000000000416 0.0
0.0 0.05000000000020799 0.0
0.5002485654567741 0.4978772509747641 0.0
0.7033187041193399 0.7014668121912166 0.0
0.2947960274694471 0.7059791390227896 0.0
0.7019765109347386 0.2973854003694347 0.0
0.29568388693037473 0.29424415290997646 0.0
0.49233715615511175 0.7875062963121555 0.0
0.21375508669212986 0.49376182953819303 0.0
0.7917969051207083 0.5071399528090823 0.0
0.5066744650542507 0.2082902354008019 0.0
0.8301472757759408 0.8303350380720145 0.0
0.1695649435653026 0.8302937057890079 0.0
0.8303544566820256 0.1698383369554692 0.0
0.1698440829834122 0.16958673903258378 0.0
0.6406859058298959 0.8535043638144211 0.0
0.1466715863273007 0.6415001294307532 0.0
0.35970150044160865 0.8470180655286812 0.0
0.8473562633002956 0.6400539409957725 0.0
0.8539200894249043 0.3592703585911031 0.0
0.15344966000070004 0.35998353861307664 0.0
0.3591361910627438 0.1457484932820563 0.0
0.6400209064720704 0.1527494243357445 0.0
0.5634894531302499 0.6411949810083936 0.0
0.3700022571702113 0.5831835692540683 0.0
0.6501699690136025 0.4584683482201004 0.0
0.43424867995219774 0.34769178151787783 0.0
0.4199911580160415 0.6535423165578038 0.0
0.6671603730398319 0.5472651882756712 0.0
0.3675828474198274 0.42185120587590474 0.0
0.5353787809342496 0.34899369879448094 0.0
0.45821216700928885 0.8942942904000355 0.0
0.10613438110100798 0.4586944207390949 0.0
0.8948333423245344 0.5417876920543356 0.0
0.5417861419406251 0.10515136575731818 0.0
0.7393236485079606 0.9037718626688892 0.0
0.09619807665257585 0.739522864027752 0.0
0.9038134296350593 0.2606591099195664 0.0
0.2606422228445461 0.09612639967547133 0.0
0.902249338511766 0.7378917011195344 0.0
0.26205394903235185 0.9022558197031812 0.0
0.7378943832597143 0.09774709608275281 0.0
0.09784461968938842 0.26211332432437484 0.0
0.6041869220757199 0.7438331107420559 0.0
0.2555547941938021 0.6073965256207687 0.0
0.747191348542144 0.3968231506991955 0.0
0.3942946628459214 0.25015269940931384 0.0
0.39063865768876654 0.7448167942665088 0.0
0.7468893108044187 0.6052240746426186 0.0
0.2583897488809709 0.39165480421915405 0.0
0.6041726979348193 0.25513500159217406 0.0
0.9140896928828459 0.9141268912093611 0.0
0.08586255538009324 0.9141003181657481 0.0
0.9141278455085173 0.08590935601475548 0.0
0.08591215420033912 0.08586955734573642 0.0
0.5657955326148328 0.9195307524479092 0.0
0.08082055294368601 0.5662303209510793 0.0
0.9196745799035446 0.4341933697829012 0.0
0.4341919187772185 0.0802897940155829 0.0
0.7920368948724936 0.7198463639424368 0.0
0.279414907590983 0.7924561192985627 0.0
0.7198383944872657 0.20804253715396287 0.0
0.20812008213323627 0.2795840826698177 0.0
0.7196526078485981 0.792928792537984 0.0
0.20652278030119622 0.7205991564674166 0.0
0.7932161075990305 0.28035136546983946 0.0
0.28000424614856084 0.20609097594581471 0.0
0.4795404988560692 0.5875387314300778 0.0
0.5810760187199975 0.541961773175441 0.0
0.412758214498036 0.5031718771084444 0.0
0.5622793578713229 0.43498904906636326 0.0
0.6452756399670023 0.632582260551598 0.0
0.34669871486632975 0.6583853703329643 0.0
0.6353551520223354 0.36056868145475124 0.0
0.3477537576246628 0.3437494875399043 0.0
0.6500376376900954 0.9344142896931137 0.0
0.06570023002672935 0.6502426663379111 0.0
0.9344495619886847 0.34995522315069466 0.0
0.34995202340387194 0.06552669505030043 0.0
0.9287479364807032 0.6437780238389056 0.0
0.6437793996849174 0.0712506588328565 0.0
0.35620520487883006 0.9286698456832501 0.0
0.07144780666726668 0.3563382889385904 0.0
0.8342996705031208 0.9277299114197415 0.0
0.07225192086227997 0.8343309756610068 0.0
0.9277328044459978 0.16569814584925438 0.0
0.16569961781206471 0.0722598820779933 0.0
0.9273666001122272 0.8340419609063143 0.0
0.8340432393877059 0.07263164936881608 0.0
0.165943336803982 0.9273771823778921 0.0
0.07264523194988452 0.16595463610696498 0.0
0.4958280319952849 0.6940735067170413 0.0
0.31004381375827395 0.5016000945630474 0.0
0.7182917152159116 0.5002403327530721 0.0
0.4957200526353339 0.2834663204359723 0.0
0.5536697608473748 0.8388075226053253 0.0
0.16183434000939306 0.5547809153535551 0.0
0.8399250223302724 0.4462994244247459 0.0
0.4461862203993219 0.15982212962800135 0.0
0.4262363138093469 0.8178231001598644 0.0
0.1829629278874066 0.42681034411551655 0.0
0.8192171374927334 0.5734103338627005 0.0
0.5733626998256578 0.18093197192725624 0.0
0.467468071118123 0.4253905240841927 0.0
0.5008632097039201 0.38775576596893857 0.0
0.5501057054513525 0.39033220847933736 0.0
0.5158153414404761 0.42774428243499124 0.0
0.9583169763364077 0.09057278427743684 0.0
0.9555477371344725 0.04446104094144228 0.0
0.09057358737104171 0.0416818789562244 0.0
0.04446170761434975 0.0444518716589729 0.0
0.9094269443701651 0.9583166599276147 0.0
0.9555388279581305 0.955547607537806 0.0
0.04167843119920192 0.909431697474023 0.0
0.04444986817926587 0.9555409937729817 0.0
0.9093995780409581 0.04174449833652589 0.0
0.04174648824231278 0.09059987282134199 0.0
0.9582552254550182 0.9093993524696691 0.0
0.09059670414635093 0.9582585182696453 0.0
0.48429970064084243 0.34959618392329606 0.0
0.45083059739845444 0.38702823409607634 0.0
0.453917717644742 0.6721289692306383 0.0
0.4489436759581884 0.7192906845812077 0.0
0.4109994070081297 0.693091663819197 0.0
0.6932211123141774 0.5247409364220479 0.0
0.730258714142838 0.5451630346282524 0.0
0.6998535043858614 0.5735720550458454 0.0
0.3365282329012792 0.45937222732600436 0.0
0.2852588636803336 0.45148338028807383 0.0
0.315837541706303 0.41252953984267415 0.0
0.5167011003454103 0.31257086371064446 0.0
0.5424776760007306 0.27253347371329745 0.0
0.5694299316854414 0.3067358181133547 0.0
0.391091283353437 0.5433052128952505 0.0
0.44326521342978953 0.5434144369548268 0.0
0.4227385419137879 0.58303600557236 0.0
0.4463083752952298 0.625105927744345 0.0
0.39968436252362094 0.6194374464697661 0.0
0.6149177621524187 0.4965553428671899 0.0
0.5719858872137963 0.48455202691233024 0.0
0.6068754813330857 0.4457633928414799 0.0
0.656318021014764 0.5063961748383655 0.0
0.6300838858993604 0.5444332436775964 0.0
0.4964543991880817 0.7413327894593307 0.0
0.4484900743891026 0.7634098810393793 0.0
0.2610311387960884 0.49913926224585753 0.0
0.23867231132211383 0.44988892775171785 0.0
0.7514775071743629 0.5019536932977069 0.0
0.7684776968852967 0.5498172390974461 0.0
0.5002208066634515 0.24909699430372134 0.0
0.5490392023823312 0.23239838203366794 0.0
0.1964180344833544 0.6285037477179873 0.0
0.22778332548558206 0.6674771992354145 0.0
0.17669364411462907 0.6801779513652195 0.0
0.627012261717711 0.8035317372467186 0.0
0.6656957077923245 0.7712481877218995 0.0
0.6792329952384518 0.8231184640133787 0.0
0.3724209186560443 0.19421447429914457 0.0
0.33351623304743283 0.22611380856832713 0.0
0.3204468359124931 0.1758752562755001 0.0
0.8047573696899734 0.3730470984386563 0.0
0.7722411990614708 0.3345340936802549 0.0
0.8235484619456869 0.3207381175584957 0.0
0.2543368763883862 0.7109766071146908 0.0
0.2755511637641761 0.6657378455585354 0.0
0.7092857462905566 0.744017835027605 0.0
0.6623671641391472 0.7208749546091597 0.0
0.29004913064693705 0.25374714201478854 0.0
0.33615139196426336 0.2734982406943743 0.0
0.7444720955249626 0.2909498998064787 0.0
0.7222124285943625 0.3387192978468392 0.0
0.8206646758531175 0.6795914921965103 0.0
0.7709112520171816 0.6663976057632901 0.0
0.7996664318633367 0.6302676062371856 0.0
0.31988827206553055 0.8206339031871008 0.0
0.33179093606985643 0.7711138014560873 0.0
0.3686770188966412 0.7989399621108308 0.0
0.6795255980959121 0.17947764295166135 0.0
0.6661472455732554 0.22963599410381708 0.0
0.6300197433817472 0.200876142531299 0.0
0.17993794531894666 0.3201622179655574 0.0
0.23018217864247148 0.33224107108587836 0.0
0.20225662520326754 0.3692163532758975 0.0
0.41793410783902374 0.4247416960527449 0.0
[...]
POINT_DATA 525
VECTORS vector double
0.0 0.0 0.0
0.0 0.0 0.0
0.0 0.0 0.0
0.0 0.0 0.0
0.0 0.0 0.0
0.0 0.0 0.0
0.0 0.0 0.0
0.0 0.0 0.0
0.0 0.0 0.0
0.0 0.0 0.0
0.0 0.0 0.0
0.0 0.0 0.0
0.0 0.0 0.0
0.0 0.0 0.0
0.0 0.0 0.0
0.0 0.0 0.0
0.0 0.0 0.0
0.0 0.0 0.0
0.0 0.0 0.0
0.0 0.0 0.0
0.0 0.0 0.0
0.0 0.0 0.0
0.0 0.0 0.0
0.0 0.0 0.0
0.0 0.0 0.0
0.0 0.0 0.0
0.0 0.0 0.0
0.0 0.0 0.0
0.0 0.0 0.0
0.0 0.0 0.0
0.0 0.0 0.0
0.0 0.0 0.0
0.0 0.0 0.0
0.0 0.0 0.0
0.0 0.0 0.0
0.0 0.0 0.0
0.0 0.0 0.0
0.0 0.0 0.0
0.0 0.0 0.0
0.0 0.0 0.0
0.0 0.0 0.0
0.0 0.0 0.0
1.0 0.0 0.0
1.0 0.0 0.0
1.0 0.0 0.0
1.0 0.0 0.0
1.0 0.0 0.0
1.0 0.0 0.0
1.0 0.0 0.0
1.0 0.0 0.0
1.0 0.0 0.0
1.0 0.0 0.0
1.0 0.0 0.0
1.0 0.0 0.0
1.0 0.0 0.0
1.0 0.0 0.0
1.0 0.0 0.0
1.0 0.0 0.0
1.0 0.0 0.0
1.0 0.0 0.0
1.0 0.0 0.0
0.0 0.0 0.0
0.0 0.0 0.0
0.0 0.0 0.0
0.0 0.0 0.0
0.0 0.0 0.0
0.0 0.0 0.0
0.0 0.0 0.0
0.0 0.0 0.0
0.0 0.0 0.0
0.0 0.0 0.0
0.0 0.0 0.0
0.0 0.0 0.0
0.0 0.0 0.0
0.0 0.0 0.0
0.0 0.0 0.0
0.0 0.0 0.0
0.0 0.0 0.0
0.0 0.0 0.0
0.0 0.0 0.0
-0.212715369983 0.0497359673651 0.0
-0.138196609772 -0.15114575424 0.0
-0.0818583020829 0.222543105714 0.0
-0.105650057823 -0.0666090884286 0.0
-0.0852753484047 0.0570891642085 0.0
0.0579614526059 0.104752190917 0.0
-0.0784551222914 0.153200645183 0.0
-0.178846352689 -0.22652390542 0.0
-0.095364608298 -0.00239597227952 0.0
0.0368124277282 -0.310332036092 0.0
-0.0571286904612 0.251346561732 0.0
-0.0169202312477 -0.0169994938319 0.0
-0.0225766187085 0.0194845403973 0.0
0.277308667485 -0.0126885099415 0.0
-0.0476088163533 0.206285654061 0.0
0.111117018308 0.133674413651 0.0
-0.175338075496 -0.373050972366 0.0
-0.0509856291861 -0.0850394461132 0.0
-0.0402908526898 0.0781087262984 0.0
-0.0553999787282 0.0123025222952 0.0
-0.0556632708325 -0.0165068843169 0.0
-0.171256796389 0.0367780220467 0.0
-0.144331215646 0.167047564589 0.0
-0.226400343651 -0.0973973827599 0.0
-0.150375101826 0.0396598611772 0.0
-0.124331762846 0.161808912851 0.0
-0.248436341469 -0.124730940385 0.0
-0.14831395831 0.0935674564192 0.0
-0.170061348201 -0.00896769692001 0.0
0.36737023603 0.0558069633019 0.0
-0.0257866868482 0.100780902348 0.0
-0.0804115630433 -0.215667921161 0.0
-0.0481787040405 -0.0033862301635 0.0
0.438625295896 -0.0649402046742 0.0
-0.0349310729315 0.21258425315 0.0
-0.0112577736939 -0.0227938339191 0.0
-0.0250132440639 0.00757678376105 0.0
-0.114756868434 -0.465725580157 0.0
0.177273592046 0.118420060417 0.0
-0.020228957022 -0.00860325868145 0.0
-0.0141560836117 0.0317632456396 0.0
-0.0189497498496 0.0128012706749 0.0
-0.0940493771604 0.207188228418 0.0
-0.144768877258 -0.127782384079 0.0
-0.101919508892 0.0274068674338 0.0
-0.037729947669 0.176499593546 0.0
-0.232850738382 -0.244494322193 0.0
-0.0925319837053 0.101583160418 0.0
-0.112645989592 -0.0308151131484 0.0
0.117180133681 -0.353555278725 0.0
-0.0201876632426 0.253067199651 0.0
-0.000224390825352 -0.000364973066142 0.0
-0.00243229516883 0.00235650608412 0.0
0.545369569053 0.0150012791269 0.0
-0.0168043194289 0.123309652973 0.0
-0.0268070227548 -0.0855603762766 0.0
-0.0374668880987 0.00227416037042 0.0
-0.14663032229 -0.32277879377 0.0
-0.0355697576124 0.211105348161 0.0
-0.0580411103533 -0.0353914582445 0.0
-0.0508767119451 0.053848445099 0.0
0.0537713919705 -0.128437588396 0.0
-0.0683326596009 0.24499384506 0.0
-0.056321526099 -0.0590343109742 0.0
-0.0578401066482 0.0303544668704 0.0
-0.183423004118 0.101508362834 0.0
-0.237129913055 -0.0157545694016 0.0
-0.177363498751 0.111002537755 0.0
-0.215851804662 -0.0185550196289 0.0
-0.204659025578 -0.077539903492 0.0
-0.108624680937 0.198960434227 0.0
-0.169431388087 -0.064381566882 0.0
-0.118185452118 0.0663309001561 0.0
0.630119786595 -0.0102347417617 0.0
-0.0142740985115 0.134826380815 0.0
-0.00984453678072 -0.0342886740996 0.0
-0.0255285730803 0.00296237882753 0.0
-0.0683773939836 -0.288358830543 0.0
-0.0252900984918 -0.00457930688711 0.0
0.444869296821 0.0470061836391 0.0
-0.010856829075 0.046684524863 0.0
0.412934289469 -0.118408860151 0.0
-0.0441183622832 0.233536007963 0.0
-0.00220494839541 -0.00359733568232 0.0
-0.00804993695607 0.00377035953631 0.0
-0.06615287463 -0.504088031259 0.0
-0.00394168658325 -0.00285108310887 0.0
0.135775339728 0.149887975898 0.0
-0.00471967031803 0.00896327095446 0.0
-0.0924757612852 0.114357163127 0.0
-0.12862501024 0.149487563149 0.0
-0.22473989055 -0.172850035701 0.0
-0.130403430035 0.00397715077155 0.0
0.212180063866 0.0498524125903 0.0
-0.0528387758221 0.172877619631 0.0
-0.0962414451638 -0.160117770785 0.0
-0.0703526192551 0.00592603012492 0.0
0.08078483679 0.126850726234 0.0
-0.0563256837506 0.114212238213 0.0
-0.183739833816 -0.298438878783 0.0
-0.0745105785655 -0.0132787775707 0.0
-0.18955055662 0.047190921571 0.0
-0.184428105587 0.0163487350102 0.0
-0.193218803917 -0.0143691353619 0.0
-0.204372569147 0.0155291797729 0.0
0.000150451800153 0.000900872830194 0.0
0.000514490232438 0.000507458295506 0.0
-0.000471070170168 0.000596159241565 0.0
0.000158477801892 -0.000152362439565 0.0
0.302636213044 -0.173974680299 0.0
0.0833558178699 -0.357158002077 0.0
-0.0370606879164 0.262847770687 0.0
-0.0406122023461 0.242949065306 0.0
0.000819130504265 3.76063031611e-05 0.0
-0.000614376468933 0.000480006089145 0.0
-0.00852894240971 -0.520698899037 0.0
0.0558917004177 0.171481074126 0.0
-0.162971097115 0.0175969044976 0.0
-0.170792555643 0.0437728980118 0.0
-0.11224700349 0.142704617546 0.0
-0.0608662614245 0.147994033827 0.0
-0.0894721567298 0.172299209141 0.0
-0.244111795367 -0.156292228958 0.0
-0.239006487186 -0.201461726239 0.0
-0.244112520401 -0.17287081487 0.0
-0.139205799354 0.121780288369 0.0
-0.11157201563 0.128614756371 0.0
-0.123799218648 0.103140946149 0.0
-0.148072233477 -0.00279144946932 0.0
-0.129432313851 -0.0137105109128 0.0
-0.144891027579 -0.0242363471239 0.0
-0.163401259815 0.140568281488 0.0
-0.186781897236 0.111339198415 0.0
-0.163974341542 0.139826022775 0.0
-0.150590117868 0.13814475932 0.0
-0.139403597759 0.165441583426 0.0
-0.241984546131 -0.063169209579 0.0
-0.235316685454 -0.0194022602127 0.0
-0.224061741145 -0.0560491294927 0.0
-0.244170007769 -0.110119539531 0.0
-0.247270569978 -0.0739463043622 0.0
-0.0251195195781 0.113075700627 0.0
0.00173968508901 0.141848378973 0.0
-0.103411281872 0.155793929853 0.0
-0.0902715992879 0.13229956162 0.0
-0.207634980546 -0.201146370792 0.0
-0.223045190873 -0.250388715 0.0
-0.113931587193 0.00048547267367 0.0
-0.103762199501 -0.0141498542122 0.0
-0.0676129810194 0.214981108953 0.0
-0.0789463992957 0.230725679213 0.0
-0.0605330404649 0.232259695038 0.0
0.117988065479 -0.00216409687977 0.0
0.0264206574868 -0.0582218715139 0.0
0.166280247437 -0.0552185375542 0.0
-0.0766090369665 0.0200872279575 0.0
-0.0768481128784 0.031758200987 0.0
-0.0586737356174 0.0203296480218 0.0
-0.088035377475 -0.113657462997 0.0
-0.0944829475227 -0.0910807411635 0.0
-0.0559542117543 -0.07236694394 0.0
-0.0762094076736 0.234117193162 0.0
-0.0891843425532 0.223659830235 0.0
-0.0574027010015 -0.141331689858 0.0
-0.0842761001789 -0.0710781424168 0.0
-0.0737408714751 0.0438764984117 0.0
-0.0946065957129 0.0426461282288 0.0
-0.0841509424419 -0.0688998381139 0.0
-0.120047879691 -0.0868492680688 0.0
-0.185067454913 -0.375595338054 0.0
-0.201158964858 -0.292134760559 0.0
-0.210403287181 -0.326200697888 0.0
0.0241025712336 0.173563183648 0.0
-0.0303822795713 0.197033538417 0.0
0.0207123763992 0.163846846596 0.0
-0.0583167574253 -0.0247593280244 0.0
-0.0823340945189 -0.0374531162809 0.0
-0.0798096835931 -0.0262430663962 0.0
-0.0465282520524 0.0662795268068 0.0
-0.0704165770376 0.0753695391006 0.0
-0.0606799755565 0.0915716942754 0.0
-0.170659576993 0.0737950008889 0.0
-0.152987707363 0.0652949352485 0.0
0.664274463399 0.00722751061535 0.0
0.684174857448 0.0216286972133 0.0
-0.00709508838289 0.0513841142163 0.0
-0.00551942304607 0.0628977769284 0.0
-0.0209625222167 -0.134953915975 0.0
-0.0208277731264 -0.100998213839 0.0
-0.0225590401177 -0.00218269183379 0.0
-0.0244961589396 0.000306514746604 0.0
-0.0212675945592 -0.163236862497 0.0
-0.0799655470334 -0.256485619426 0.0
-0.0163272535069 -0.00138273420598 0.0
-0.0339556758748 -0.00474072971158 0.0
0.6854751255 0.0128576974747 0.0
0.42257235788 0.0583429951902 0.0
-0.0038461398911 0.0331613392368 0.0
-0.0173042296441 0.0655901771912 0.0
-0.225528061258 -0.138213555472 0.0
-0.141599719277 0.0191270602694 0.0
-0.199314030659 -0.203986161496 0.0
-0.14239453956 -0.2280466415 0.0
-0.0685370850439 0.206094051953 0.0
-0.0616421436893 0.221758530287 0.0
-0.111737254146 -0.0493778585593 0.0
-0.0820016659902 -0.0512128747895 0.0
-0.0870260619389 0.0733616889708 0.0
-0.0702315795066 0.0587937975926 0.0
-0.115009413949 0.181738077516 0.0
-0.124110222649 0.187123374306 0.0
-0.132257569091 0.0796492338507 0.0
-0.134467700085 0.0552247788297 0.0
-0.186165603258 0.0798122248086 0.0
-0.164118267136 0.104457662488 0.0
-0.207100302434 0.071665850337 0.0
-0.198249162137 0.0820998547775 0.0
-0.220789797607 0.0156986868925 0.0
-0.225529717663 0.0249933911715 0.0
-0.131721692369 -0.317643720895 0.0
-0.122819052351 -0.358285874129 0.0
-0.0534210669431 -0.00864232900722 0.0
-0.0389905502484 -0.00961681002489 0.0
0.216109162591 0.0990802517796 0.0
0.250930794089 0.0894118899439 0.0
-0.0301772363288 0.0896808743642 0.0
-0.0231185456042 0.0648651358602 0.0
0.719358223931 -0.0231065401542 0.0
0.676802561997 -0.0257973175599 0.0
-0.0118412046809 0.124488174179 0.0
-0.0128023609312 0.146112233565 0.0
-0.00219892387482 -0.00864794322131 0.0
-0.00193548255165 -0.00457350010919 0.0
-0.0125493893406 0.00128444518817 0.0
-0.00932330874761 0.00224239089499 0.0
-0.0460090314367 -0.390974914302 0.0
-0.0484649388996 -0.318636179589 0.0
-0.00578229147003 -0.0022334307977 0.0
-0.009522099397 -0.00186986509802 0.0
0.47325951032 0.043470984037 0.0
0.54463539485 0.0409922592864 0.0
-0.00342006193409 0.0124017626267 0.0
-0.00344571716946 0.0185587784552 0.0
0.483361506899 0.0296451481168 0.0
0.744670394891 0.00712627543108 0.0
-0.0217830780105 0.112564624962 0.0
-0.00451307549959 0.0696657043693 0.0
-0.0477079890066 -0.13193822509 0.0
-0.0094574831139 -0.0568741774327 0.0
-0.0420800733114 -0.000266974544398 0.0
-0.0221928649316 0.000446064576705 0.0
-0.148880333985 -0.42522974827 0.0
-0.147810694934 -0.424111771996 0.0
0.121769332842 0.127362649544 0.0
0.0193850818331 0.184426843269 0.0
-0.0385096553851 -0.0139804982072 0.0
-0.0368721689558 -0.0208903056324 0.0
-0.0265944846294 0.054900311253 0.0
-0.0322679896468 0.0450136491905 0.0
0.136699925004 0.0730684333988 0.0
0.271220079735 0.0519929180893 0.0
0.170648699885 0.0956517515661 0.0
-0.0655876243971 0.165747760336 0.0
-0.0392879455998 0.1441479545 0.0
-0.053308710189 0.135292481334 0.0
-0.134471379051 -0.193806206894 0.0
-0.086604917315 -0.185818302152 0.0
-0.141617740711 -0.243964813643 0.0
-0.0831740348829 0.0033209721047 0.0
-0.0635685116894 0.000116045773414 0.0
-0.0728970485266 -0.00315657797534 0.0
-0.185297614626 -0.0119562707982 0.0
-0.133629348497 -0.0333952213371 0.0
-0.119580160121 0.0267194801511 0.0
-0.107454667464 0.205160733621 0.0
-0.121994837805 0.190390444236 0.0
-0.197874409068 -0.0825523359287 0.0
-0.161917145602 -0.0993048811969 0.0
-0.196612709216 -0.11968940657 0.0
-0.114914241958 0.0488829359025 0.0
-0.126716073919 0.033765822392 0.0
0.221456277024 -0.159864705075 0.0
0.211845081241 -0.107348005411 0.0
0.0598138238127 -0.208107378497 0.0
-0.058917242334 0.255594850902 0.0
-0.0571542259383 0.244681398196 0.0
-0.0657702217835 0.2525480843 0.0
-0.0161908571572 -0.0227995479871 0.0
-0.0314287644646 -0.0424620139873 0.0
-0.0328365267624 -0.0353555321931 0.0
-0.0267486529479 0.0145060922807 0.0
-0.0409525108721 0.0182601324296 0.0
-0.0396613236538 0.026020096616 0.0
-0.17070556115 -0.115844314369 0.0
-0.0930297004029 0.212144726829 0.0
-0.136923962499 -0.0700794004387 0.0
-0.102666616703 0.062039403231 0.0
-0.210374396942 0.0150122473703 0.0
-0.228618721861 -0.0441971549145 0.0
-0.23967416972 -0.107358045032 0.0
-0.198018100358 -0.0474381410174 0.0
-0.171517514872 -0.0361601500808 0.0
0.778094050889 0.0032557340827 0.0
-0.00398093444166 0.0745945754689 0.0
-0.00614152103839 -0.0345153064218 0.0
-0.0190583165695 0.000882626393395 0.0
0.0778414899952 0.120922497174 0.0
0.0281471870757 0.149989604139 0.0
-0.184335071954 -0.268558416127 0.0
-0.211701358982 -0.293133850294 0.0
-0.0656903205106 0.13029673132 0.0
-0.0713677970526 0.109778641722 0.0
-0.0863450518465 -0.00995098866816 0.0
-0.0899260447001 -0.0170137179696 0.0
0.429948814361 -0.101899952831 0.0
0.64336968601 -0.0356281887102 0.0
-0.0419330938131 0.225896871008 0.0
-0.0162177997072 0.161658052823 0.0
-0.00521252438144 -0.00943864283409 0.0
-0.000458806505366 -0.000865467987527 0.0
-0.0146341082536 0.00578724413019 0.0
-0.00492507039886 0.00118905293301 0.0
-0.0394618178545 -0.434455849721 0.0
-0.0939016727628 -0.49944514469 0.0
-0.0018076339367 -0.000876497615092 0.0
-0.00953554890575 -0.0055455568401 0.0
0.430264892068 0.0546752092175 0.0
0.148939804307 0.144146815586 0.0
-0.00158551476499 0.005798182084 0.0
-0.0086047636581 0.0168576568291 0.0
-0.0403176953236 0.216897490108 0.0
0.3376624204 -0.0438852855355 0.0
-0.0413628037184 0.0112571510574 0.0
-0.0275372320878 -0.0505189609127 0.0
-0.0733666649842 -0.333886235361 0.0
-0.096121873989 -0.447301724251 0.0
-0.046359423961 0.230194483247 0.0
0.00234249579486 0.199076722267 0.0
-0.035635965069 -0.0274493078787 0.0
-0.021069679357 -0.0145907243642 0.0
-0.0357053668205 0.035571276036 0.0
-0.020497859212 0.0282729583256 0.0
-0.000152817634215 0.000574884340644 0.0
0.550815318178 -0.0695326292338 0.0
-0.00210333418275 0.000852559596952 0.0
-0.0267369354632 0.197744026502 0.0
-0.0413146087302 -0.489618833756 0.0
0.000191701354474 -0.000418465542304 0.0
0.306951385071 0.0995001335898 0.0
-0.00101968354895 0.0022681340745 0.0
0.352296427951 0.0325521925507 0.0
-0.0355134351156 0.154468069719 0.0
-0.0620916727221 -0.133241885445 0.0
-0.0549768603602 0.00372129231607 0.0
-0.0017353133966 -0.00172870671499 0.0
-0.00530145298487 0.00388121816736 0.0
0.278016413046 -0.207447574804 0.0
-0.0577492029102 0.256603464043 0.0
-0.0171132568642 -0.463857648766 0.0
-0.00175970956137 -0.00222680760265 0.0
0.0436775596365 0.204131626332 0.0
-0.00443256041658 0.00546742661156 0.0
-0.0579931775897 -0.22804386307 0.0
-0.0639188969978 0.238366181996 0.0
-0.0566684911511 -0.0463120224464 0.0
-0.0545413419642 0.0414211073743 0.0
-0.063911936757 0.0748507016124 0.0
-0.131644576295 0.0766852266823 0.0
-0.112177579607 0.178010307448 0.0
-0.139035485603 0.16253755997 0.0
-0.191571559505 -0.156899136322 0.0
-0.122302132097 0.0165077445479 0.0
0.173440792127 0.0963614641073 0.0
-0.0475017509167 0.115765728338 0.0
0.100679055068 0.133709722647 0.0
-0.051501027256 0.0990216756572 0.0
-0.150435114812 -0.2801638523 0.0
-0.0670269378762 -0.00984176409356 0.0
-0.185755266871 -0.330116496266 0.0
-0.0689483769446 -0.0157851717299 0.0
0.780592192453 -0.00918541089894 0.0
0.556562921437 -0.02390828777 0.0
-0.00626277587817 0.0934068559833 0.0
-0.0218144821434 0.168093754513 0.0
0.333949869574 0.0723420269603 0.0
0.451371228503 -0.0128787567777 0.0
-0.0284319408944 0.17912033445 0.0
-0.0976267692572 -0.376473847127 0.0
-0.0132975476359 0.0405589772687 0.0
-0.0238230839657 -0.00693326704931 0.0
0.651293235182 0.0209515653947 0.0
-0.0305544596577 -0.218329541087 0.0
-0.00322066401487 0.0241595545852 0.0
-0.012442597596 -0.00146905202185 0.0
-0.00224077397508 -0.0129874250658 0.0
-0.0117675470829 -0.029731999701 0.0
-0.0138812029122 0.00085539159708 0.0
-0.0264527238774 0.00539326194829 0.0
-0.0247999470689 -0.0577440816398 0.0
-0.0391179542553 0.00678095788028 0.0
0.0291779909986 0.0752591481793 0.0
-0.0912876156937 0.179039491143 0.0
-0.167880179645 -0.180920126626 0.0
-0.100849224546 0.0113087721834 0.0
-0.147281016778 0.110210306806 0.0
-0.181885927346 0.0676671792687 0.0
-0.153302267694 0.134359531305 0.0
0.21952451623 -0.200923246832 0.0
-0.0599108795807 0.261320033258 0.0
-0.0475579737117 -0.45024878661 0.0
-0.00672291084589 -0.00939143391551 0.0
-0.00473716876531 0.211843799059 0.0
-0.0144565757483 0.00876234731429 0.0
-0.00889773406397 -0.00718210421699 0.0
-0.0111227063267 0.0146595783436 0.0
0.235860947321 0.0220881309833 0.0
0.104654521904 0.0399461841384 0.0
-0.0523534634067 0.190336338937 0.0
-0.0726020126059 0.196309196836 0.0
-0.1197317241 -0.147679653536 0.0
-0.0762742517673 -0.124057341848 0.0
-0.0657858263695 0.0104609200763 0.0
-0.0847066849123 0.0116579261398 0.0
-0.0866405421827 0.193502087638 0.0
-0.227224403983 -0.159846403411 0.0
-0.109524110639 0.0862752095942 0.0
-0.140715954336 -0.0481549780371 0.0
0.0772176824228 -0.344433653465 0.0
-0.0573545588919 0.256048424261 0.0
-0.00525005823429 -0.00586037158424 0.0
-0.00973478758684 0.00927781238337 0.0
-0.21313811577 0.0461118582613 0.0
0.593936065273 0.000318191773468 0.0
0.798189337723 -0.000329927391872 0.0
-0.0158712830133 0.131269080452 0.0
-0.00340704326047 0.0788436336577 0.0
0.399020826556 0.00964832941062 0.0
-0.03220758837 0.169697523424 0.0
-0.0169879091686 -0.0540565284562 0.0
-0.00351967654382 -0.0202445211458 0.0
-0.0315419855704 0.00301436161548 0.0
-0.0157379178063 0.00104905807088 0.0
-0.0411919614503 -0.0909867269593 0.0
-0.048425220433 0.00617246874829 0.0
-0.204132931122 0.0490007309363 0.0

SCALARS scalar1 double
LOOKUP_TABLE default
-0.00180678796398
-0.0131828661748
-3.50795067361
-7.23014500206
-0.00615740666937
0.0116257025545
0.0721187293126
0.169594118554
0.231244266386
0.335128583779
0.434693193335
0.492742387252
0.527756514089
0.547488839432
0.492034235968
0.484555945987
0.368010079767
0.254785694901
0.142474112343
0.0767933947237
-0.00699746058807
-0.0322083371711
-0.0214656645262
-0.0224410709437
-0.0384974380288
-0.029035941637
0.0363954937124
0.0944025694997
0.217980736681
0.418508466355
0.726013799435
1.02768077313
1.85860370556
2.51952756225
3.56059680406
5.12181007352
7.29341397064
9.16794277597
11.4289519417
14.574770425
16.0045200941
17.84079612
-28.4875290353
-15.5796088808
-10.9986407681
-8.60541382865
-7.08600802564
-6.52662643076
-5.93005983709
-5.77424696419
-5.7587685113
-6.53358614009
-6.84340295862
-7.76426995284
-8.49560063279
-10.252415466
-11.6921727699
-13.9145918674
-17.8744800002
-24.0701533092
-33.4060684561
12.7383038764
6.19617282479
5.30933956898
4.0519465935
3.37105382528
2.99521147439
2.55771099094
2.20458172197
1.88159002593
1.53273407243
1.258263134
1.06549534762
0.742618751375
0.518726448433
0.332887757508
0.21517869716
0.079653314201
0.0129170130153
-0.00643993727116
-0.811650231484
-3.50657488064
-0.748781605978
0.394665951733
0.158700286137
-2.67283842059
0.120926242415
0.299757863541
0.261745131524
-5.27394350027
-0.712100679046
0.282648880166
0.207067299113
-4.34398833932
0.505051992829
-2.88367161132
-0.213524087334
0.793446414042
0.318814469391
0.289442107057
0.324687329231
-2.23250459299
-0.746327457428
-0.411672599058
-0.00295754339801
-1.34170638151
-1.37192772041
-0.152417633295
0.0134381490559
-4.72328063594
0.606005516592
1.81481733292
0.364337756491
-5.31758010618
1.19143970309
0.404373883645
0.252431374849
0.30290126124
-4.8731948843
0.256296314075
0.305634045536
-3.22545406
-0.228112716603
0.455024533273
0.188264275918
-1.60309114468
-1.75802424598
0.0986579149703
0.280710706087
-7.80827879114
-1.88977592101
0.0679008695098
0.0932828052203
-5.29655936774
1.0416186211
1.23929942178
0.389960798863
-3.5190619889
-1.27862671166
0.366125003184
0.223484727391
-4.40393374172
-0.14202386029
0.516948549197
0.226736045581
-1.3439076961
-1.35509624896
-0.576017013304
-0.397757365499
-2.54219532994
-0.897366984765
0.132109583878
0.0554021101384
-5.40702335584
1.49578325164
0.685781515033
0.353878155393
2.94032298102
0.336644301352
-6.44556351443
0.545259146179
-6.79772461497
1.55499211445
0.148626884024
0.153995117787
-0.749459233433
0.132096771284
-6.34060739465
0.172425091983
-2.08816954817
-0.22987533162
-0.447471280826
0.152477526591
-3.71330785445
0.366015218326
0.997547902802
0.299932183141
-2.65201601997
0.257453338368