# vtk DataFile Version 2.0
2D Simulation Python
ASCII
DATASET UNSTRUCTURED_GRID
FIELD FieldData 1
NODES 1 2 int
142 242

POINTS 142 double
0.0 0.0 0.0
1.0 0.0 0.0
1.0 1.0 0.0
0.0 1.0 0.0
0.09999999999981467 0.0 0.0
0.1999999999995579 0.0 0.0
0.2999999999992664 0.0 0.0
0.3999999999989749 0.0 0.0
0.4999999999986943 0.0 0.0
0.5999999999989468 0.0 0.0
0.69999999999921 0.0 0.0
0.7999999999994734 0.0 0.0
0.8999999999997368 0.0 0.0
1.0 0.09999999999981467 0.0
1.0 0.1999999999995579 0.0
1.0 0.2999999999992664 0.0
1.0 0.3999999999989749 0.0
1.0 0.4999999999986943 0.0
1.0 0.5999999999989468 0.0
1.0 0.69999999999921 0.0
1.0 0.7999999999994734 0.0
1.0 0.8999999999997368 0.0
0.8999999999995836 1.0 0.0
0.7999999999999998 1.0 0.0
0.7000000000006934 1.0 0.0
0.6000000000013869 1.0 0.0
0.5000000000020587 1.0 0.0
0.4000000000016644 1.0 0.0
0.3000000000012483 1.0 0.0
0.2000000000008322 1.0 0.0
0.100000000000416 1.0 0.0
0.0 0.8999999999995836 0.0
0.0 0.7999999999999998 0.0
0.0 0.7000000000006934 0.0
0.0 0.6000000000013869 0.0
0.0 0.5000000000020587 0.0
0.0 0.4000000000016644 0.0
0.0 0.3000000000012483 0.0
0.0 0.2000000000008322 0.0
0.0 0.100000000000416 0.0
0.5014563362473403 0.5005349146734296 0.0
0.700546275200524 0.699166855865603 0.0
0.29441453895085934 0.7046440731518775 0.0
0.6998113901344318 0.3016509312121945 0.0
0.29806271211674307 0.2930466533604185 0.0
0.4900184313625784 0.7874950341515937 0.0
0.2144456954971941 0.49197507366657933 0.0
0.7944725384901308 0.5088404729287834 0.0
0.507266032680018 0.20595883088685613 0.0
0.8304044224174203 0.8303772613774109 0.0
0.16926283173306844 0.8307817878712624 0.0
0.8303873362440117 0.16965242969070785 0.0
0.16947982608499323 0.16924704214442343 0.0
0.6399613666158117 0.8519094675181835 0.0
0.14771181493871785 0.6410107199223807 0.0
0.3595118217805211 0.8469588642579138 0.0
0.8475915258350354 0.6396608717349261 0.0
0.8531328788080936 0.3600823672380419 0.0
0.15462139929015853 0.3601101814206488 0.0
0.35930566826326593 0.14548872674783703 0.0
0.6392090027876751 0.15341825987056085 0.0
0.5608341076158609 0.6413040054028867 0.0
0.36824043788187266 0.5829726350031157 0.0
0.6524379326851752 0.4618122725816848 0.0
0.43494734232313187 0.34370600061828105 0.0
0.4176283070326549 0.654849428657984 0.0
0.6686991496016157 0.549904214955401 0.0
0.36951126543045537 0.4194806419740078 0.0
0.5357752242824678 0.34983056200677354 0.0
0.45745922124331523 0.8955178146103737 0.0
0.10510361781012446 0.4579570029699403 0.0
0.8969157550552578 0.542480554187031 0.0
0.5423496672934697 0.10317826358622982 0.0
0.7402684582595735 0.903037629779819 0.0
0.09674839959096176 0.740631433771466 0.0
0.9032328110858281 0.2597077014269714 0.0
0.25950950138253515 0.09638292463787604 0.0
0.9019521216111414 0.7387725313193008 0.0
0.26102270599746197 0.9020379032586839 0.0
0.738690994794381 0.09819756778088412 0.0
0.09833279225756525 0.2612075232467692 0.0
0.6016268484711734 0.743042496464708 0.0
0.2551719405978777 0.6057970828306383 0.0
0.7480158961467039 0.39983684597645586 0.0
0.3952701285735273 0.2467487455629026 0.0
0.3886726456434581 0.7453350904312002 0.0
0.7478025744789585 0.6057790874474784 0.0
0.26084196942025284 0.39029381222656767 0.0
0.6031387436272313 0.2570140714959822 0.0
0.9155026226378833 0.9154606464490298 0.0
0.08448880416975493 0.9155714583768044 0.0
0.9154670232085054 0.08449395167409796 0.0
0.08448426633559802 0.08450563612005271 0.0
0.5633876116615697 0.9199594065658416 0.0
0.0802034081351096 0.563785837239765 0.0
0.9205134829990309 0.43660771668448295 0.0
0.43652449648225466 0.07923094365225664 0.0
0.7926064627755639 0.7186335857681578 0.0
0.2796358297214122 0.7933337949525677 0.0
0.7181654457439208 0.20830783384907864 0.0
0.20811761845794927 0.2799940439504467 0.0
0.7180685804100405 0.7926363072058807 0.0
0.20588807272323803 0.7195907181572003 0.0
0.7933832091032214 0.2822270781870041 0.0
0.28092959429341535 0.20452426516891992 0.0
0.4778571016860116 0.5882109263908768 0.0
0.5808021135895818 0.5436658758333571 0.0
0.4141751563752235 0.5037588774989815 0.0
0.563514350332782 0.4391185202183968 0.0
0.6437140222878992 0.632299564849116 0.0
0.3435553499673239 0.6584831673183517 0.0
0.6350596354018634 0.3652885585217338 0.0
0.3501198558126515 0.33985109154251414 0.0
0.6504010006178484 0.9339373961054487 0.0
0.06607705845886444 0.6506750676034971 0.0
0.9341726311325653 0.34958169408258943 0.0
0.3494983768126686 0.06557943435290545 0.0
0.9282104532478554 0.6431676730883915 0.0
0.6431294754454169 0.07190965934590912 0.0
0.35679128078045086 0.927950582174174 0.0
0.07240230334653261 0.35702133187428864 0.0
0.8352489546439792 0.9274448082605975 0.0
0.07249163165059982 0.8353599612552042 0.0
0.9274662074965179 0.16474151269989276 0.0
0.16471681682137282 0.07247422804881035 0.0
0.9272020812960476 0.8347796652327227 0.0
0.8347784082482348 0.07280090093590225 0.0
0.16516809847885855 0.9272736954483765 0.0
0.0728176827846701 0.16521071089652514 0.0
0.4925328871231334 0.6954901519390444 0.0
0.31048587731328203 0.500082156143341 0.0
0.7232460637076921 0.5023719179673869 0.0
0.49547484560038624 0.2800451375915867 0.0
0.5509460330928937 0.8382078076373588 0.0
0.16197372445887276 0.5521351583648031 0.0
0.8406319871606387 0.4490721652850831 0.0
0.44839573318005876 0.158320166602963 0.0
0.42533028292982356 0.8188711648146195 0.0
0.18323501558063904 0.4261207432030638 0.0
0.8211698123414243 0.5735534249440135 0.0
0.5730188414171227 0.18002846548640739 0.0
0.46867138066882374 0.4246510962232309 0.0

CELLS 242 968
3 141 68 108
3 1 13 91
3 0 4 92
3 2 22 89
3 3 31 90
3 1 91 12
3 0 92 39
3 2 89 21
3 3 90 30
3 64 68 141
3 65 129 85
3 66 131 86
3 67 130 87
3 68 132 88
3 62 107 105
3 62 105 65
3 63 106 108
3 63 66 106
3 129 45 85
3 130 46 87
3 131 47 86
3 132 48 88
3 54 82 102
3 53 81 101
3 59 84 104
3 57 83 103
3 42 102 82
3 41 101 81
3 44 104 84
3 43 103 83
3 56 97 86
3 55 98 85
3 60 99 88
3 58 100 87
3 64 141 67
3 26 27 69
3 35 36 70
3 17 18 71
3 8 9 72
3 18 117 71
3 9 118 72
3 27 119 69
3 36 120 70
3 63 131 66
3 64 132 68
3 41 86 97
3 42 85 98
3 43 88 99
3 44 87 100
3 62 65 110
3 64 67 112
3 67 141 107
3 40 105 107
3 40 108 106
3 56 71 117
3 60 72 118
3 55 69 119
3 58 70 120
3 23 24 73
3 32 33 74
3 14 15 75
3 5 6 76
3 19 20 77
3 10 11 79
3 28 29 78
3 37 38 80
3 26 69 93
3 35 70 94
3 17 71 95
3 8 72 96
3 56 77 97
3 55 78 98
3 60 79 99
3 58 80 100
3 45 133 69
3 46 134 70
3 47 135 71
3 48 136 72
3 61 109 81
3 62 110 82
3 63 111 83
3 64 112 84
3 49 73 101
3 50 74 102
3 51 75 103
3 52 76 104
3 41 81 109
3 42 82 110
3 43 83 111
3 44 84 112
3 61 106 109
3 66 109 106
3 63 108 111
3 68 111 108
3 25 26 93
3 34 35 94
3 16 17 95
3 7 8 96
3 45 137 85
3 47 139 86
3 46 138 87
3 48 140 88
3 23 73 121
3 32 74 122
3 14 75 123
3 5 76 124
3 20 125 77
3 11 126 79
3 29 127 78
3 38 128 80
3 54 102 74
3 53 101 73
3 59 104 76
3 57 103 75
3 49 97 77
3 50 98 78
3 51 99 79
3 52 100 80
3 13 14 123
3 22 23 121
3 4 5 124
3 31 32 122
3 20 21 125
3 11 12 126
3 29 30 127
3 38 39 128
3 69 133 93
3 70 134 94
3 71 135 95
3 72 136 96
3 13 123 91
3 4 124 92
3 22 121 89
3 31 122 90
3 21 89 125
3 12 91 126
3 30 90 127
3 39 92 128
3 49 101 97
3 50 102 98
3 51 103 99
3 52 104 100
3 61 81 129
3 62 82 130
3 63 83 131
3 64 84 132
3 45 69 137
3 46 70 138
3 55 137 69
3 58 138 70
3 47 71 139
3 48 72 140
3 56 139 71
3 60 140 72
3 24 113 73
3 33 114 74
3 55 119 78
3 53 73 113
3 54 74 114
3 56 117 77
3 58 120 80
3 60 118 79
3 28 78 119
3 19 77 117
3 37 80 120
3 10 79 118
3 15 115 75
3 6 116 76
3 57 75 115
3 59 76 116
3 45 129 81
3 46 130 82
3 47 131 83
3 48 132 84
3 61 129 105
3 65 105 129
3 62 130 107
3 67 107 130
3 49 121 73
3 50 122 74
3 49 77 125
3 51 123 75
3 50 78 127
3 52 124 76
3 51 79 126
3 52 80 128
3 53 133 81
3 45 81 133
3 54 134 82
3 46 82 134
3 47 83 135
3 57 135 83
3 59 136 84
3 48 84 136
3 65 85 110
3 42 110 85
3 66 86 109
3 41 109 86
3 67 87 112
3 68 88 111
3 44 112 87
3 43 111 88
3 41 97 101
3 42 98 102
3 43 99 103
3 44 100 104
3 49 89 121
3 50 90 122
3 49 125 89
3 50 127 90
3 51 91 123
3 51 126 91
3 52 92 124
3 52 128 92
3 40 106 105
3 61 105 106
3 25 93 113
3 34 94 114
3 53 113 93
3 54 114 94
3 16 95 115
3 7 96 116
3 57 115 95
3 59 116 96
3 24 25 113
3 33 34 114
3 15 16 115
3 6 7 116
3 18 19 117
3 9 10 118
3 27 28 119
3 36 37 120
3 55 85 137
3 56 86 139
3 58 87 138
3 60 88 140
3 53 93 133
3 54 94 134
3 57 95 135
3 59 96 136
3 40 141 108
3 40 107 141

CELL_TYPES 242
5 
5 
5 
5 
5 
5 
5 
5 
5 
5 
5 
5 
5 
5 
5 
5 
5 
5 
5 
5 
5 
5 
5 
5 
5 
5 
5 
5 
5 
5 
5 
5 
5 
5 
5 
5 
5 
5 
5 
5 
5 
5 
5 
5 
5 
5 
5 
5 
5 
5 
5 
5 
5 
5 
5 
5 
5 
5 
5 
5 
5 
5 
5 
5 
5 
5 
5 
5 
5 
5 
5 
5 
5 
5 
5 
5 
5 
5 
5 
5 
5 
5 
5 
5 
5 
5 
5 
5 
5 
5 
5 
5 
5 
5 
5 
5 
5 
5 
5 
5 
5 
5 
5 
5 
5 
5 
5 
5 
5 
5 
5 
5 
5 
5 
5 
5 
5 
5 
5 
5 
5 
5 
5 
5 
5 
5 
5 
5 
5 
5 
5 
5 
5 
5 
5 
5 
5 
5 
5 
5 
5 
5 
5 
5 
5 
5 
5 
5 
5 
5 
5 
5 
5 
5 
5 
5 
5 
5 
5 
5 
5 
5 
5 
5 
5 
5 
5 
5 
5 
5 
5 
5 
5 
5 
5 
5 
5 
5 
5 
5 
5 
5 
5 
5 
5 
5 
5 
5 
5 
5 
5 
5 
5 
5 
5 
5 
5 
5 
5 
5 
5 
5 
5 
5 
5 
5 
5 
5 
5 
5 
5 
5 
5 
5 
5 
5 
5 
5 
5 
5 
5 
5 
5 
5 
5 
5 
5 
5 
5 
5 
5 
5 
5 
5 
5 
5 
5 
5 
5 
5 
5 
5 

POINT_DATA 142
VECTORS vector double
0.0 0.0 0.0
0.0 0.0 0.0
1.0 0.0 0.0
1.0 0.0 0.0
0.0 0.0 0.0
0.0 0.0 0.0
0.0 0.0 0.0
0.0 0.0 0.0
0.0 0.0 0.0
0.0 0.0 0.0
0.0 0.0 0.0
0.0 0.0 0.0
0.0 0.0 0.0
0.0 0.0 0.0
0.0 0.0 0.0
0.0 0.0 0.0
0.0 0.0 0.0
0.0 0.0 0.0
0.0 0.0 0.0
0.0 0.0 0.0
0.0 0.0 0.0
0.0 0.0 0.0
1.0 0.0 0.0
1.0 0.0 0.0
1.0 0.0 0.0
1.0 0.0 0.0
1.0 0.0 0.0
1.0 0.0 0.0
1.0 0.0 0.0
1.0 0.0 0.0
1.0 0.0 0.0
0.0 0.0 0.0
0.0 0.0 0.0
0.0 0.0 0.0
0.0 0.0 0.0
0.0 0.0 0.0
0.0 0.0 0.0
0.0 0.0 0.0
0.0 0.0 0.0
0.0 0.0 0.0
-0.205759926007 -0.0115354044036 0.0
-0.153814461223 -0.193869781541 0.0
-0.139030029853 0.206971061399 0.0
-0.088917522737 -0.0617604946624 0.0
-0.0954620849341 0.0496561616665 0.0
0.053159422037 0.00545508899198 0.0
-0.122012442133 0.167137617782 0.0
-0.127474108759 -0.186768601322 0.0
-0.0879037750871 -0.0034481179938 0.0
-0.0164783330764 -0.23587530328 0.0
-0.0316859817116 0.290206641419 0.0
-0.0185295147934 -0.0194971130118 0.0
-0.0254842815821 0.0224942505252 0.0
0.205662824845 -0.0557032754868 0.0
-0.0834736641479 0.262034848394 0.0
0.156267954002 0.0641095351058 0.0
-0.112637713298 -0.253250187532 0.0
-0.0365799812975 -0.0797880685811 0.0
-0.0418670075625 0.0891719323512 0.0
-0.061765646195 0.013311433371 0.0
-0.0596369511953 -0.0158642672421 0.0
-0.187333835532 -0.0687759836324 0.0
-0.189684692242 0.123836223301 0.0
-0.172345847103 -0.116045438994 0.0
-0.145840952777 0.0204629218336 0.0
-0.17323776904 0.0802520191344 0.0
-0.186355519434 -0.156535806889 0.0
-0.167342254222 0.0727349232444 0.0
-0.151738203914 -0.0215064113361 0.0
0.451345239037 0.00119466544438 0.0
-0.0343596659237 0.120167245514 0.0
-0.051161323974 -0.152081137932 0.0
-0.0510506923478 -0.00369704765559 0.0
0.323715684088 -0.0892887426309 0.0
-0.0828367734432 0.331011189243 0.0
-0.0116524657875 -0.0237073753701 0.0
-0.0283071843244 0.00918775480025 0.0
-0.113740282482 -0.349459451895 0.0
0.326009999972 0.11090792396 0.0
-0.0237728074793 -0.0100755485016 0.0
-0.0196125555873 0.0366901038198 0.0
-0.0582669062192 -0.0947779740084 0.0
-0.151988674377 0.216467028101 0.0
-0.0991317509394 -0.110693376651 0.0
-0.105386737968 0.023513364848 0.0
-0.0632917229777 0.0973486543518 0.0
-0.168804229729 -0.216983571687 0.0
-0.109693607738 0.104258155252 0.0
-0.104109184408 -0.0327804130509 0.0
-0.107576049344 -0.340570023983 0.0
-0.148813100912 0.327529694732 0.0
-0.00185121240311 -0.00200093850768 0.0
-0.00361940867032 0.00381001785521 0.0
0.548190401123 -0.0176172067449 0.0
-0.0354127449214 0.167853204318 0.0
-0.0257224136494 -0.0677364387071 0.0
-0.0398204928644 0.00292333310812 0.0
-0.164128003453 -0.285207884713 0.0
-0.0369972432527 0.20318273811 0.0
-0.0521347762577 -0.0364224377746 0.0
-0.0631406826185 0.0584702678957 0.0
-0.01131759785 -0.172181364434 0.0
-0.135297885642 0.306035351894 0.0
-0.051331399287 -0.0548418659168 0.0
-0.0608899680866 0.0327703484894 0.0
-0.203039243573 0.0136163765768 0.0
-0.202451188635 -0.0801002876794 0.0
-0.198063560848 0.0676737239092 0.0
-0.185449644215 -0.0514181449267 0.0
-0.191550726012 -0.147371802055 0.0
-0.173103756392 0.155564370153 0.0
-0.13698897382 -0.07830272279 0.0
-0.128120083775 0.0658744747291 0.0
0.572602176136 -0.0253610637902 0.0
-0.0372596440759 0.207812283756 0.0
-0.00807253106353 -0.0345075387862 0.0
-0.0298695510845 0.00394173731681 0.0
-0.0615862400219 -0.210024352318 0.0
-0.027807557566 -0.00579428741744 0.0
0.60985509068 0.00467951267786 0.0
-0.0194448580369 0.0552136801413 0.0
0.305894915143 -0.10407501005 0.0
-0.0378350578808 0.416741395996 0.0
-0.00157173504509 -0.00362314585315 0.0
-0.00769170550945 0.0023345708599 0.0
-0.0562297332301 -0.473400789475 0.0
-0.0039994112395 -0.00219130631495 0.0
0.274696204515 0.158044714551 0.0
-0.00459491190861 0.00738980950808 0.0
-0.131713948463 0.000739592850581 0.0
-0.161357097115 0.134336756012 0.0
-0.150153507536 -0.156077118512 0.0
-0.131097976234 -0.00419705259377 0.0
0.183945669281 -0.050284225174 0.0
-0.0838955609689 0.217373839277 0.0
-0.0544309962739 -0.120363305738 0.0
-0.0751969854461 0.00263653787249 0.0
0.11666041542 0.0175499783721 0.0
-0.0816252194355 0.129471632828 0.0
-0.119866324573 -0.217681534778 0.0
-0.0768160483288 -0.0126288142732 0.0
-0.184155379875 0.0114756962496 0.0

SCALARS scalar1 double
LOOKUP_TABLE default
0.0251833243226
0.018587758792
-12.8040505362
-13.6566467969
0.00695663261866
0.243146948958
0.354922543726
0.519571683391
0.52406062611
0.48087142961
0.282591702918
0.182517513749
-0.0192284643678
-0.0230631319985
0.160711428158
0.248599938273
0.708579539275
1.27432800014
2.29557344017
4.24047740977
6.90901485575
5.18927042865
-16.0522645539
-8.23066780862
-7.51852271491
-6.03947775112
-5.65221871779
-4.74188581323
-6.53290965145
-8.59324281345
-16.6005813639
4.55970793708
5.7189701919
4.23048418582
2.83218568919
1.72654245827
1.04124581502
0.546262819922
0.277489410901
0.00482341254863
-0.724282442169
-1.75356026536
-1.76145950973
0.22326729422
0.145179643838
-3.39334161628
0.0916434373382
0.478623606418
0.208812543322
-3.96053188166
-2.50518341611
0.231443053073
0.229924893966
-4.14137311163
0.39270157589
-4.53762947645
0.545592663853
0.547880130907
0.359377325516
0.290887757729
0.264132346748
-1.61615692603
-1.01387434056
-0.15642829224
-0.0479643746818
-1.73198196164
-0.489590131086
-0.21435971636
-0.0672838383381
-5.04284689197
0.725937434103
1.22522192933
0.344169670766
-5.08750430905
1.08326617446
0.335870505299
0.273699362483
0.609528144823
-7.23153636168
0.239721521643
0.345425071344
-2.69016556812
-0.573679754739
0.329776091449
0.165215401314
-2.72151319936
-0.321389819966
0.0837656180032
0.15886993378
-6.83863467985
-4.26650039772
0.0726992078954
0.101953465487
-4.83728534838
1.30420725851
0.879259546755
0.392154426259
-1.28832022364
-3.18490223211
0.257164571715
0.246153104781
-3.25150922284
-1.04151730782
0.351412513505
0.233155897031
-1.24707873978
-0.808917547638
-0.645286041206
-0.329820472273
-1.26388697555
-1.52322607414
0.0244782796276
0.0226806102484
-5.22336938793
1.91174103584
0.546737369495
0.365978838886
1.87300542035
0.325101977377
-6.27336956531
0.596764237812
-6.47172747533
0.863771828414
0.163652318386
0.183627713143
-1.10979559587
0.150069742856
-7.51508442395
0.202223320948
-2.23271416151
-0.357574556465
0.0498768060202
0.0834707680329
-4.01107018581
0.395594311227
0.699520650941
0.282447573733
-3.91087217458
0.294111245185
0.520684426193
0.242502657007
-0.333767786468

SCALARS scalar2 double
LOOKUP_TABLE default
0.0251833243226
0.018587758792
-12.8040505362
-13.6566467969
0.00695663261866
0.243146948958
0.354922543726
0.519571683391
0.52406062611
0.48087142961
0.282591702918
0.182517513749
-0.0192284643678
-0.0230631319985
0.160711428158
0.248599938273
0.708579539275
1.27432800014
2.29557344017
4.24047740977
6.90901485575
5.18927042865
-16.0522645539
-8.23066780862
-7.51852271491
-6.03947775112
-5.65221871779
-4.74188581323
-6.53290965145
-8.59324281345
-16.6005813639
4.55970793708
5.7189701919
4.23048418582
2.83218568919
1.72654245827
1.04124581502
0.546262819922
0.277489410901
0.00482341254863
-0.724282442169
-1.75356026536
-1.76145950973
0.22326729422
0.145179643838
-3.39334161628
0.0916434373382
0.478623606418
0.208812543322
-3.96053188166
-2.50518341611
0.231443053073
0.229924893966
-4.14137311163
0.39270157589
-4.53762947645
0.545592663853
0.547880130907
0.359377325516
0.290887757729
0.264132346748
-1.61615692603
-1.01387434056
-0.15642829224
-0.0479643746818
-1.73198196164
-0.489590131086
-0.21435971636
-0.0672838383381
-5.04284689197
0.725937434103
1.22522192933
0.344169670766
-5.08750430905
1.08326617446
0.335870505299
0.273699362483
0.609528144823
-7.23153636168
0.239721521643
0.345425071344
-2.69016556812
-0.573679754739
0.329776091449
0.165215401314
-2.72151319936
-0.321389819966
0.0837656180032
0.15886993378
-6.83863467985
-4.26650039772
0.0726992078954
0.101953465487
-4.83728534838
1.30420725851
0.879259546755
0.392154426259
-1.28832022364
-3.18490223211
0.257164571715
0.246153104781
-3.25150922284
-1.04151730782
0.351412513505
0.233155897031
-1.24707873978
-0.808917547638
-0.645286041206
-0.329820472273
-1.26388697555
-1.52322607414
0.0244782796276
0.0226806102484
-5.22336938793
1.91174103584
0.546737369495
0.365978838886
1.87300542035
0.325101977377
-6.27336956531
0.596764237812
-6.47172747533
0.863771828414
0.163652318386
0.183627713143
-1.10979559587
0.150069742856
-7.51508442395
0.202223320948
-2.23271416151
-0.357574556465
0.0498768060202
0.0834707680329
-4.01107018581
0.395594311227
0.699520650941
0.282447573733
-3.91087217458
0.294111245185
0.520684426193
0.242502657007
-0.333767786468

SCALARS scalar3 double
LOOKUP_TABLE default
0.0
0.0
0.0
0.0
0.0
0.0
0.0
0.0
0.0
0.0
0.0
0.0
0.0
0.0
0.0
0.0
0.0
0.0
0.0
0.0
0.0
0.0
0.0
0.0
0.0
0.0
0.0
0.0
0.0
0.0
0.0
0.0
0.0
0.0
0.0
0.0
0.0
0.0
0.0
0.0
-0.0559938870847
-0.0732592001298
-0.0737435374416
-0.0135774120612
-0.0146139239151
-0.0981823674693
-0.0268010262162
-0.0237601813207
-0.0105341742104
-0.057022283531
-0.0532688830861
-0.00131914473149
-0.00197575464016
-0.0824144664975
-0.0276763384857
-0.0862931104456
-0.0279393290171
-0.00578371445576
-0.00877997198549
-0.00467873306243
-0.00473976569494
-0.0821302501364
-0.0657583187872
-0.0383129253473
-0.0269112756506
-0.0836090688832
-0.0520449357852
-0.035910657853
-0.0278877227223
-0.0751532743731
-0.00741929807767
-0.00878342176466
-0.00280060547564
-0.0620717279043
-0.0203830707781
-0.00102499284037
-0.00129557148572
-0.0232511303044
-0.0662335251924
-0.00110678285419
-0.00191836482127
-0.0934517255012
-0.0504843115045
-0.01852943096
-0.0136234239955
-0.0933585194863
-0.0475200119414
-0.0214751193656
-0.0138144279666
-0.0307058027777
-0.0268202948636
3.77297193677e-05
-2.16038918996e-05
-0.0597371446941
-0.00786943257374
-0.0030938320049
-0.00184410244423
-0.0550002503399
-0.0798179994193
-0.00580640600135
-0.00802885101405
-0.0792696447842
-0.0537018669979
-0.00615373524231
-0.00668221511842
-0.0745024294141
-0.0614469332504
-0.0543246239343
-0.0418868279238
-0.0718523254335
-0.0755378433391
-0.0253486655225
-0.0228722379454
-0.049270739729
-0.00850729770749
-0.00125054611884
-0.00111973486807
-0.00936687880064
-0.00127740725232
-0.055269600304
-0.0026366101282
-0.0425328452374
-0.0195928216208
-0.000156967366304
-0.000325798662372
-0.0240326600774
-0.000195852065166
-0.0423283937327
-0.000400552332001
-0.0932462306732
-0.0430097475507
-0.035054296824
-0.0187472919111
-0.08969069824
-0.0229056212329
-0.0116763683834
-0.00644431709789
-0.0926366477732
-0.0160664807966
-0.0263840865652
-0.00769907453716
-0.0411744011244

