# vtk DataFile Version 2.0
2D Simulation Python
ASCII
DATASET UNSTRUCTURED_GRID
FIELD FieldData 1
NODES 1 2 int
142 242

POINTS 142 double
0.0 0.0 0.0
1.0 0.0 0.0
1.0 1.0 0.0
0.0 1.0 0.0
0.09999999999981467 0.0 0.0
0.1999999999995579 0.0 0.0
0.2999999999992664 0.0 0.0
0.3999999999989749 0.0 0.0
0.4999999999986943 0.0 0.0
0.5999999999989468 0.0 0.0
0.69999999999921 0.0 0.0
0.7999999999994734 0.0 0.0
0.8999999999997368 0.0 0.0
1.0 0.09999999999981467 0.0
1.0 0.1999999999995579 0.0
1.0 0.2999999999992664 0.0
1.0 0.3999999999989749 0.0
1.0 0.4999999999986943 0.0
1.0 0.5999999999989468 0.0
1.0 0.69999999999921 0.0
1.0 0.7999999999994734 0.0
1.0 0.8999999999997368 0.0
0.8999999999995836 1.0 0.0
0.7999999999999998 1.0 0.0
0.7000000000006934 1.0 0.0
0.6000000000013869 1.0 0.0
0.5000000000020587 1.0 0.0
0.4000000000016644 1.0 0.0
0.3000000000012483 1.0 0.0
0.2000000000008322 1.0 0.0
0.100000000000416 1.0 0.0
0.0 0.8999999999995836 0.0
0.0 0.7999999999999998 0.0
0.0 0.7000000000006934 0.0
0.0 0.6000000000013869 0.0
0.0 0.5000000000020587 0.0
0.0 0.4000000000016644 0.0
0.0 0.3000000000012483 0.0
0.0 0.2000000000008322 0.0
0.0 0.100000000000416 0.0
0.5014563362473403 0.5005349146734296 0.0
0.700546275200524 0.699166855865603 0.0
0.29441453895085934 0.7046440731518775 0.0
0.6998113901344318 0.3016509312121945 0.0
0.29806271211674307 0.2930466533604185 0.0
0.4900184313625784 0.7874950341515937 0.0
0.2144456954971941 0.49197507366657933 0.0
0.7944725384901308 0.5088404729287834 0.0
0.507266032680018 0.20595883088685613 0.0
0.8304044224174203 0.8303772613774109 0.0
0.16926283173306844 0.8307817878712624 0.0
0.8303873362440117 0.16965242969070785 0.0
0.16947982608499323 0.16924704214442343 0.0
0.6399613666158117 0.8519094675181835 0.0
0.14771181493871785 0.6410107199223807 0.0
0.3595118217805211 0.8469588642579138 0.0
0.8475915258350354 0.6396608717349261 0.0
0.8531328788080936 0.3600823672380419 0.0
0.15462139929015853 0.3601101814206488 0.0
0.35930566826326593 0.14548872674783703 0.0
0.6392090027876751 0.15341825987056085 0.0
0.5608341076158609 0.6413040054028867 0.0
0.36824043788187266 0.5829726350031157 0.0
0.6524379326851752 0.4618122725816848 0.0
0.43494734232313187 0.34370600061828105 0.0
0.4176283070326549 0.654849428657984 0.0
0.6686991496016157 0.549904214955401 0.0
0.36951126543045537 0.4194806419740078 0.0
0.5357752242824678 0.34983056200677354 0.0
0.45745922124331523 0.8955178146103737 0.0
0.10510361781012446 0.4579570029699403 0.0
0.8969157550552578 0.542480554187031 0.0
0.5423496672934697 0.10317826358622982 0.0
0.7402684582595735 0.903037629779819 0.0
0.09674839959096176 0.740631433771466 0.0
0.9032328110858281 0.2597077014269714 0.0
0.25950950138253515 0.09638292463787604 0.0
0.9019521216111414 0.7387725313193008 0.0
0.26102270599746197 0.9020379032586839 0.0
0.738690994794381 0.09819756778088412 0.0
0.09833279225756525 0.2612075232467692 0.0
0.6016268484711734 0.743042496464708 0.0
0.2551719405978777 0.6057970828306383 0.0
0.7480158961467039 0.39983684597645586 0.0
0.3952701285735273 0.2467487455629026 0.0
0.3886726456434581 0.7453350904312002 0.0
0.7478025744789585 0.6057790874474784 0.0
0.26084196942025284 0.39029381222656767 0.0
0.6031387436272313 0.2570140714959822 0.0
0.9155026226378833 0.9154606464490298 0.0
0.08448880416975493 0.9155714583768044 0.0
0.9154670232085054 0.08449395167409796 0.0
0.08448426633559802 0.08450563612005271 0.0
0.5633876116615697 0.9199594065658416 0.0
0.0802034081351096 0.563785837239765 0.0
0.9205134829990309 0.43660771668448295 0.0
0.43652449648225466 0.07923094365225664 0.0
0.7926064627755639 0.7186335857681578 0.0
0.2796358297214122 0.7933337949525677 0.0
0.7181654457439208 0.20830783384907864 0.0
0.20811761845794927 0.2799940439504467 0.0
0.7180685804100405 0.7926363072058807 0.0
0.20588807272323803 0.7195907181572003 0.0
0.7933832091032214 0.2822270781870041 0.0
0.28092959429341535 0.20452426516891992 0.0
0.4778571016860116 0.5882109263908768 0.0
0.5808021135895818 0.5436658758333571 0.0
0.4141751563752235 0.5037588774989815 0.0
0.563514350332782 0.4391185202183968 0.0
0.6437140222878992 0.632299564849116 0.0
0.3435553499673239 0.6584831673183517 0.0
0.6350596354018634 0.3652885585217338 0.0
0.3501198558126515 0.33985109154251414 0.0
0.6504010006178484 0.9339373961054487 0.0
0.06607705845886444 0.6506750676034971 0.0
0.9341726311325653 0.34958169408258943 0.0
0.3494983768126686 0.06557943435290545 0.0
0.9282104532478554 0.6431676730883915 0.0
0.6431294754454169 0.07190965934590912 0.0
0.35679128078045086 0.927950582174174 0.0
0.07240230334653261 0.35702133187428864 0.0
0.8352489546439792 0.9274448082605975 0.0
0.07249163165059982 0.8353599612552042 0.0
0.9274662074965179 0.16474151269989276 0.0
0.16471681682137282 0.07247422804881035 0.0
0.9272020812960476 0.8347796652327227 0.0
0.8347784082482348 0.07280090093590225 0.0
0.16516809847885855 0.9272736954483765 0.0
0.0728176827846701 0.16521071089652514 0.0
0.4925328871231334 0.6954901519390444 0.0
0.31048587731328203 0.500082156143341 0.0
0.7232460637076921 0.5023719179673869 0.0
0.49547484560038624 0.2800451375915867 0.0
0.5509460330928937 0.8382078076373588 0.0
0.16197372445887276 0.5521351583648031 0.0
0.8406319871606387 0.4490721652850831 0.0
0.44839573318005876 0.158320166602963 0.0
0.42533028292982356 0.8188711648146195 0.0
0.18323501558063904 0.4261207432030638 0.0
0.8211698123414243 0.5735534249440135 0.0
0.5730188414171227 0.18002846548640739 0.0
0.46867138066882374 0.4246510962232309 0.0

CELLS 242 968
3 141 68 108
3 1 13 91
3 0 4 92
3 2 22 89
3 3 31 90
3 1 91 12
3 0 92 39
3 2 89 21
3 3 90 30
3 64 68 141
3 65 129 85
3 66 131 86
3 67 130 87
3 68 132 88
3 62 107 105
3 62 105 65
3 63 106 108
3 63 66 106
3 129 45 85
3 130 46 87
3 131 47 86
3 132 48 88
3 54 82 102
3 53 81 101
3 59 84 104
3 57 83 103
3 42 102 82
3 41 101 81
3 44 104 84
3 43 103 83
3 56 97 86
3 55 98 85
3 60 99 88
3 58 100 87
3 64 141 67
3 26 27 69
3 35 36 70
3 17 18 71
3 8 9 72
3 18 117 71
3 9 118 72
3 27 119 69
3 36 120 70
3 63 131 66
3 64 132 68
3 41 86 97
3 42 85 98
3 43 88 99
3 44 87 100
3 62 65 110
3 64 67 112
3 67 141 107
3 40 105 107
3 40 108 106
3 56 71 117
3 60 72 118
3 55 69 119
3 58 70 120
3 23 24 73
3 32 33 74
3 14 15 75
3 5 6 76
3 19 20 77
3 10 11 79
3 28 29 78
3 37 38 80
3 26 69 93
3 35 70 94
3 17 71 95
3 8 72 96
3 56 77 97
3 55 78 98
3 60 79 99
3 58 80 100
3 45 133 69
3 46 134 70
3 47 135 71
3 48 136 72
3 61 109 81
3 62 110 82
3 63 111 83
3 64 112 84
3 49 73 101
3 50 74 102
3 51 75 103
3 52 76 104
3 41 81 109
3 42 82 110
3 43 83 111
3 44 84 112
3 61 106 109
3 66 109 106
3 63 108 111
3 68 111 108
3 25 26 93
3 34 35 94
3 16 17 95
3 7 8 96
3 45 137 85
3 47 139 86
3 46 138 87
3 48 140 88
3 23 73 121
3 32 74 122
3 14 75 123
3 5 76 124
3 20 125 77
3 11 126 79
3 29 127 78
3 38 128 80
3 54 102 74
3 53 101 73
3 59 104 76
3 57 103 75
3 49 97 77
3 50 98 78
3 51 99 79
3 52 100 80
3 13 14 123
3 22 23 121
3 4 5 124
3 31 32 122
3 20 21 125
3 11 12 126
3 29 30 127
3 38 39 128
3 69 133 93
3 70 134 94
3 71 135 95
3 72 136 96
3 13 123 91
3 4 124 92
3 22 121 89
3 31 122 90
3 21 89 125
3 12 91 126
3 30 90 127
3 39 92 128
3 49 101 97
3 50 102 98
3 51 103 99
3 52 104 100
3 61 81 129
3 62 82 130
3 63 83 131
3 64 84 132
3 45 69 137
3 46 70 138
3 55 137 69
3 58 138 70
3 47 71 139
3 48 72 140
3 56 139 71
3 60 140 72
3 24 113 73
3 33 114 74
3 55 119 78
3 53 73 113
3 54 74 114
3 56 117 77
3 58 120 80
3 60 118 79
3 28 78 119
3 19 77 117
3 37 80 120
3 10 79 118
3 15 115 75
3 6 116 76
3 57 75 115
3 59 76 116
3 45 129 81
3 46 130 82
3 47 131 83
3 48 132 84
3 61 129 105
3 65 105 129
3 62 130 107
3 67 107 130
3 49 121 73
3 50 122 74
3 49 77 125
3 51 123 75
3 50 78 127
3 52 124 76
3 51 79 126
3 52 80 128
3 53 133 81
3 45 81 133
3 54 134 82
3 46 82 134
3 47 83 135
3 57 135 83
3 59 136 84
3 48 84 136
3 65 85 110
3 42 110 85
3 66 86 109
3 41 109 86
3 67 87 112
3 68 88 111
3 44 112 87
3 43 111 88
3 41 97 101
3 42 98 102
3 43 99 103
3 44 100 104
3 49 89 121
3 50 90 122
3 49 125 89
3 50 127 90
3 51 91 123
3 51 126 91
3 52 92 124
3 52 128 92
3 40 106 105
3 61 105 106
3 25 93 113
3 34 94 114
3 53 113 93
3 54 114 94
3 16 95 115
3 7 96 116
3 57 115 95
3 59 116 96
3 24 25 113
3 33 34 114
3 15 16 115
3 6 7 116
3 18 19 117
3 9 10 118
3 27 28 119
3 36 37 120
3 55 85 137
3 56 86 139
3 58 87 138
3 60 88 140
3 53 93 133
3 54 94 134
3 57 95 135
3 59 96 136
3 40 141 108
3 40 107 141

CELL_TYPES 242
5 
5 
5 
5 
5 
5 
5 
5 
5 
5 
5 
5 
5 
5 
5 
5 
5 
5 
5 
5 
5 
5 
5 
5 
5 
5 
5 
5 
5 
5 
5 
5 
5 
5 
5 
5 
5 
5 
5 
5 
5 
5 
5 
5 
5 
5 
5 
5 
5 
5 
5 
5 
5 
5 
5 
5 
5 
5 
5 
5 
5 
5 
5 
5 
5 
5 
5 
5 
5 
5 
5 
5 
5 
5 
5 
5 
5 
5 
5 
5 
5 
5 
5 
5 
5 
5 
5 
5 
5 
5 
5 
5 
5 
5 
5 
5 
5 
5 
5 
5 
5 
5 
5 
5 
5 
5 
5 
5 
5 
5 
5 
5 
5 
5 
5 
5 
5 
5 
5 
5 
5 
5 
5 
5 
5 
5 
5 
5 
5 
5 
5 
5 
5 
5 
5 
5 
5 
5 
5 
5 
5 
5 
5 
5 
5 
5 
5 
5 
5 
5 
5 
5 
5 
5 
5 
5 
5 
5 
5 
5 
5 
5 
5 
5 
5 
5 
5 
5 
5 
5 
5 
5 
5 
5 
5 
5 
5 
5 
5 
5 
5 
5 
5 
5 
5 
5 
5 
5 
5 
5 
5 
5 
5 
5 
5 
5 
5 
5 
5 
5 
5 
5 
5 
5 
5 
5 
5 
5 
5 
5 
5 
5 
5 
5 
5 
5 
5 
5 
5 
5 
5 
5 
5 
5 
5 
5 
5 
5 
5 
5 
5 
5 
5 
5 
5 
5 
5 
5 
5 
5 
5 
5 

POINT_DATA 142
VECTORS vector double
0.0 0.0 0.0
0.0 0.0 0.0
0.0 0.0 0.0
0.0 0.0 0.0
0.0 0.0 0.0
0.0 0.0 0.0
0.0 0.0 0.0
0.0 0.0 0.0
0.0 0.0 0.0
0.0 0.0 0.0
0.0 0.0 0.0
0.0 0.0 0.0
0.0 0.0 0.0
0.0 0.0 0.0
0.0 0.0 0.0
0.0 0.0 0.0
0.0 0.0 0.0
0.0 0.0 0.0
0.0 0.0 0.0
0.0 0.0 0.0
0.0 0.0 0.0
0.0 0.0 0.0
1.0 0.0 0.0
1.0 0.0 0.0
1.0 0.0 0.0
1.0 0.0 0.0
1.0 0.0 0.0
1.0 0.0 0.0
1.0 0.0 0.0
1.0 0.0 0.0
1.0 0.0 0.0
0.0 0.0 0.0
0.0 0.0 0.0
0.0 0.0 0.0
0.0 0.0 0.0
0.0 0.0 0.0
0.0 0.0 0.0
0.0 0.0 0.0
0.0 0.0 0.0
0.0 0.0 0.0
-0.210703205742 0.0490275970434 0.0
-0.139074441468 -0.138163179347 0.0
-0.0953926821032 0.219230033269 0.0
-0.112006674628 -0.0590507646237 0.0
-0.0839678566274 0.0487223115379 0.0
0.0569755684191 0.108943871295 0.0
-0.0899135301473 0.145046441552 0.0
-0.195540311262 -0.234398454074 0.0
-0.0857191076905 0.000635688970984 0.0
0.0553753443815 -0.294321801081 0.0
-0.0433649681033 0.254825995523 0.0
-0.0182726824107 -0.0189037943427 0.0
-0.021809870815 0.0192960532762 0.0
0.257584905629 -0.00331148729943 0.0
-0.047537055541 0.205467986857 0.0
0.106201010073 0.114391609823 0.0
-0.153146435401 -0.338201904424 0.0
-0.0557474038129 -0.0968300247489 0.0
-0.0342491219425 0.076927809119 0.0
-0.05557295997 0.0128104871335 0.0
-0.0586910723609 -0.0156786529276 0.0
-0.178581809899 0.0366534800342 0.0
-0.150148382256 0.164211398033 0.0
-0.227498578131 -0.0916988684167 0.0
-0.142122019033 0.0351254909753 0.0
-0.132913425816 0.156407494387 0.0
-0.239066658164 -0.114427471421 0.0
-0.150357767039 0.0872744094635 0.0
-0.166277726173 -0.00191060600585 0.0
0.395775508503 0.0497439237929 0.0
-0.0252724650343 0.0985054439145 0.0
-0.086363711551 -0.226617855962 0.0
-0.0466933200661 -0.0035591604683 0.0
0.419381211306 -0.0774663794875 0.0
-0.0449863149458 0.232335229326 0.0
-0.0149329538373 -0.0230944030511 0.0
-0.0239560323608 0.00813241707083 0.0
-0.0899937333256 -0.472284666263 0.0
0.20296202902 0.118931539665 0.0
-0.0208261840299 -0.00978317802203 0.0
-0.0165036861557 0.0307731367821 0.0
-0.0226341822196 0.0064294773095 0.0
-0.102024080606 0.200780276294 0.0
-0.146295815489 -0.119066939572 0.0
-0.0986075139923 0.0260455998402 0.0
-0.0447323005835 0.165749688632 0.0
-0.218302916271 -0.22168940204 0.0
-0.0917250456377 0.0981743357328 0.0
-0.114101516449 -0.0275667279142 0.0
0.113085609336 -0.368281824114 0.0
-0.0246758047339 0.25117045617 0.0
-0.000449185707034 -0.000728044058749 0.0
-0.00279978652054 0.00294255104739 0.0
0.558776153441 0.0204295778719 0.0
-0.022012515455 0.127185018744 0.0
-0.0456350810161 -0.0953591645002 0.0
-0.0352365484812 0.00291911519895 0.0
-0.143871686303 -0.317506733739 0.0
-0.044853161433 0.212321634743 0.0
-0.0564980460277 -0.0358005559414 0.0
-0.0542922882898 0.0512831899511 0.0
0.0622840628736 -0.130380357498 0.0
-0.0879919638061 0.249346207088 0.0
-0.0668734041214 -0.0599652207185 0.0
-0.0535936333682 0.0306632835215 0.0
-0.184928904581 0.0935859344581 0.0
-0.230958631269 -0.00746830462445 0.0
-0.180617780092 0.108408148393 0.0
-0.215697804677 -0.0138092259677 0.0
-0.201852739604 -0.0725382826947 0.0
-0.121813313667 0.188288296514 0.0
-0.169334158546 -0.0660243705064 0.0
-0.117882941007 0.0697691785923 0.0
0.623518300933 -0.00933342547035 0.0
-0.0198065716724 0.145819579917 0.0
-0.0130436116037 -0.0409093529977 0.0
-0.0259317594009 0.00367991860508 0.0
-0.0910083237096 -0.330398268331 0.0
-0.0239432074983 -0.00574166925578 0.0
0.483222578822 0.0439686835703 0.0
-0.0158156576592 0.0458006146583 0.0
0.330148790612 -0.152460718193 0.0
-0.0383516124033 0.277399338028 0.0
-0.000803836784409 -0.000465856455223 0.0
-0.00596073448533 0.00185953955476 0.0
-0.0195758529971 -0.537465030853 0.0
-0.00115325082704 -0.00110744699949 0.0
0.09085743355 0.164449156878 0.0
-0.00382010785749 0.0057288674988 0.0
-0.104725108862 0.109283939614 0.0
-0.127485413651 0.143349172668 0.0
-0.221295126631 -0.154232812239 0.0
-0.133593524491 0.00311674783093 0.0
0.20412959682 0.0245436633085 0.0
-0.0560888792432 0.175989340067 0.0
-0.0943852259476 -0.153171729342 0.0
-0.0699212243021 0.00345928833885 0.0
0.0919258265294 0.104279559406 0.0
-0.0635759959713 0.109563613631 0.0
-0.186717667215 -0.282110094503 0.0
-0.0770075374182 -0.010712082268 0.0
-0.185877605904 0.0447889713081 0.0

SCALARS scalar1 double
LOOKUP_TABLE default
0.0174352477228
0.00535122788724
-0.908889777397
-3.14377564236
-0.00194301591984
0.19815582086
0.297542590984
0.450792059055
0.464869964398
0.41405638906
0.223886397347
0.13628768264
-0.0557607862263
-0.0620105461653
0.114301373926
0.207087199761
0.965943691253
1.86342369804
3.96104773433
6.0040925902
8.54739565622
10.035771731
-14.292906266
-8.08285879904
-5.92030127455
-5.61246538463
-5.92960221718
-6.49103205796
-8.31310639025
-12.262799399
-17.3003553602
6.92741656873
3.63729281547
2.78654400695
2.05447810911
1.33593241239
0.867919268748
0.450562719282
0.228277738442
-0.00302926165489
-0.736815634141
-3.32526276979
-0.786850237477
0.373933216321
0.172779773101
-2.7643878163
0.141475568126
0.132614983817
0.267095428767
-5.33101838046
-0.888130925972
0.305254047909
0.213098865823
-4.29927204024
0.473281879228
-3.1541196553
-0.618778826204
0.775114433407
0.311885520868
0.283251658179
0.326556818765
-2.05607987074
-0.66895794334
-0.413923215096
0.0358437902369
-1.26926865645
-1.31016858382
-0.109502953271
0.037938949488
-4.83203687924
0.570615421848
1.49222179
0.347633755277
-5.09954453087
1.08984392221
0.436276745717
0.249220129997
-0.642013692081
-5.53811471217
0.267728495611
0.297471190381
-3.16355407951
-0.197347016682
0.402036231724
0.204097983668
-1.66575237517
-1.74106921419
0.124617556835
0.287708271279
-5.88579642514
-2.38589675992
0.0655880253889
0.0883917639634
-5.02954471975
0.979274070577
1.22574824674
0.364638089492
-3.44634127948
-1.51898690209
0.374821165248
0.235362684145
-4.35732089649
-0.182848305427
0.525221747363
0.233796904376
-1.21013900588
-1.23397185415
-0.506821566107
-0.365046103531
-2.35279574194
-0.857916683779
0.118830645677
0.0831604249884
-5.15021329959
1.4111523397
0.732978036407
0.328608083915
2.11204186161
0.321476264345
-6.22311727213
0.493743252682
-6.53140798219
1.33915340509
0.180227656018
0.16164172121
-1.20584389989
0.155703913459
-6.22862766721
0.176678974633
-2.0069896281
-0.179944092473
-0.465912483101
0.172012229443
-3.7935768309
0.369003393348
0.856164843749
0.295662341434
-2.92576433842
0.268143345015
-0.208570825467
0.307122707512
-0.258939800447

SCALARS scalar2 double
LOOKUP_TABLE default
0.0174352477228
0.00535122788724
-0.908889777397
-3.14377564236
-0.00194301591984
0.19815582086
0.297542590984
0.450792059055
0.464869964398
0.41405638906
0.223886397347
0.13628768264
-0.0557607862263
-0.0620105461653
0.114301373926
0.207087199761
0.965943691253
1.86342369804
3.96104773433
6.0040925902
8.54739565622
10.035771731
-14.292906266
-8.08285879904
-5.92030127455
-5.61246538463
-5.92960221718
-6.49103205796
-8.31310639025
-12.262799399
-17.3003553602
6.92741656873
3.63729281547
2.78654400695
2.05447810911
1.33593241239
0.867919268748
0.450562719282
0.228277738442
-0.00302926165489
-0.736815634141
-3.32526276979
-0.786850237477
0.373933216321
0.172779773101
-2.7643878163
0.141475568126
0.132614983817
0.267095428767
-5.33101838046
-0.888130925972
0.305254047909
0.213098865823
-4.29927204024
0.473281879228
-3.1541196553
-0.618778826204
0.775114433407
0.311885520868
0.283251658179
0.326556818765
-2.05607987074
-0.66895794334
-0.413923215096
0.0358437902369
-1.26926865645
-1.31016858382
-0.109502953271
0.037938949488
-4.83203687924
0.570615421848
1.49222179
0.347633755277
-5.09954453087
1.08984392221
0.436276745717
0.249220129997
-0.642013692081
-5.53811471217
0.267728495611
0.297471190381
-3.16355407951
-0.197347016682
0.402036231724
0.204097983668
-1.66575237517
-1.74106921419
0.124617556835
0.287708271279
-5.88579642514
-2.38589675992
0.0655880253889
0.0883917639634
-5.02954471975
0.979274070577
1.22574824674
0.364638089492
-3.44634127948
-1.51898690209
0.374821165248
0.235362684145
-4.35732089649
-0.182848305427
0.525221747363
0.233796904376
-1.21013900588
-1.23397185415
-0.506821566107
-0.365046103531
-2.35279574194
-0.857916683779
0.118830645677
0.0831604249884
-5.15021329959
1.4111523397
0.732978036407
0.328608083915
2.11204186161
0.321476264345
-6.22311727213
0.493743252682
-6.53140798219
1.33915340509
0.180227656018
0.16164172121
-1.20584389989
0.155703913459
-6.22862766721
0.176678974633
-2.0069896281
-0.179944092473
-0.465912483101
0.172012229443
-3.7935768309
0.369003393348
0.856164843749
0.295662341434
-2.92576433842
0.268143345015
-0.208570825467
0.307122707512
-0.258939800447

SCALARS scalar3 double
LOOKUP_TABLE default
0.0
0.0
0.0
0.0
0.0
0.0
0.0
0.0
0.0
0.0
0.0
0.0
0.0
0.0
0.0
0.0
0.0
0.0
0.0
0.0
0.0
0.0
0.0
0.0
0.0
0.0
0.0
0.0
0.0
0.0
0.0
0.0
0.0
0.0
0.0
0.0
0.0
0.0
0.0
0.0
-0.0571216865607
-0.0910274116357
-0.0583781912667
-0.0145385177283
-0.0128773233788
-0.0937221709783
-0.0219958641552
-0.0333171537681
-0.00982245653952
-0.068242541451
-0.0379802782943
-0.000970973530245
-0.00162121346997
-0.0887857544265
-0.0202310726671
-0.0731166309681
-0.0419469747246
-0.00702788847787
-0.00735273010503
-0.00409852172149
-0.00430523419572
-0.0884044518503
-0.05792999139
-0.0454552309856
-0.0254596372671
-0.0759381407122
-0.0644950468585
-0.0327365401899
-0.0282167361593
-0.0707110172727
-0.00601713334491
-0.0138681265487
-0.00248527568265
-0.0677870208125
-0.0134251881095
-0.000879328067758
-0.00106892085969
-0.0331164281123
-0.0543523851255
-0.000828939895758
-0.0015891526256
-0.102068783325
-0.0401497856512
-0.0227305200616
-0.0123658512276
-0.0801448615741
-0.0650606089827
-0.0184997102379
-0.0136554988144
-0.0283415948304
-0.0177473975869
0.000113395210516
1.49080535501e-06
-0.0603571643113
-0.00598803139135
-0.00440656444359
-0.00161499195095
-0.0739909746728
-0.0618411934881
-0.00554682488381
-0.00684843593501
-0.093923598116
-0.0392475610127
-0.00644609887836
-0.00577171254167
-0.0734918276738
-0.0687360885377
-0.0508968000091
-0.0449167361489
-0.0859681452719
-0.063501585356
-0.0277320418313
-0.0206669068686
-0.0515924377764
-0.00595940435721
-0.00146130775241
-0.000956830033289
-0.0150668330058
-0.00107898187439
-0.0491361472516
-0.0021886201403
-0.0450681757662
-0.0119773133899
-1.02729804241e-05
-0.000245617517244
-0.026872061145
-4.7559254265e-05
-0.033543119927
-0.000310244127889
-0.0910802369197
-0.0371505588307
-0.0455278516088
-0.017993946852
-0.0903467197541
-0.0178787617088
-0.0161050900602
-0.00581573277341
-0.0830399355149
-0.0133634499885
-0.0386087689665
-0.00720666808149
-0.0404656049317

