# vtk DataFile Version 2.0
2D Simulation Python
ASCII
DATASET UNSTRUCTURED_GRID
FIELD FieldData 1
NODES 1 2 int
2017 3872

POINTS 2017 double
0.0 0.0 0.0
1.0 0.0 0.0
1.0 1.0 0.0
0.0 1.0 0.0
0.02499999999995297 0.0 0.0
0.04999999999989927 0.0 0.0
0.07499999999985263 0.0 0.0
0.09999999999981467 0.0 0.0
0.1249999999997765 0.0 0.0
0.1499999999997036 0.0 0.0
0.1749999999996308 0.0 0.0
0.1999999999995579 0.0 0.0
0.224999999999485 0.0 0.0
0.2499999999994121 0.0 0.0
0.2749999999993393 0.0 0.0
0.2999999999992664 0.0 0.0
0.3249999999991935 0.0 0.0
0.3499999999991207 0.0 0.0
0.3749999999990478 0.0 0.0
0.3999999999989749 0.0 0.0
0.4249999999989048 0.0 0.0
0.4499999999988346 0.0 0.0
0.4749999999987644 0.0 0.0
0.4999999999986943 0.0 0.0
0.5249999999987575 0.0 0.0
0.5499999999988205 0.0 0.0
0.5749999999988837 0.0 0.0
0.5999999999989468 0.0 0.0
0.6249999999990127 0.0 0.0
0.6499999999990784 0.0 0.0
0.6749999999991443 0.0 0.0
0.69999999999921 0.0 0.0
0.7249999999992759 0.0 0.0
0.7499999999993416 0.0 0.0
0.7749999999994075 0.0 0.0
0.7999999999994734 0.0 0.0
0.8249999999995392 0.0 0.0
0.8499999999996051 0.0 0.0
0.8749999999996709 0.0 0.0
0.8999999999997368 0.0 0.0
0.9249999999998026 0.0 0.0
0.9499999999998684 0.0 0.0
0.9749999999999343 0.0 0.0
1.0 0.02499999999995297 0.0
1.0 0.04999999999989927 0.0
1.0 0.07499999999985263 0.0
1.0 0.09999999999981467 0.0
1.0 0.1249999999997765 0.0
1.0 0.1499999999997036 0.0
1.0 0.1749999999996308 0.0
1.0 0.1999999999995579 0.0
1.0 0.224999999999485 0.0
1.0 0.2499999999994121 0.0
1.0 0.2749999999993393 0.0
1.0 0.2999999999992664 0.0
1.0 0.3249999999991935 0.0
1.0 0.3499999999991207 0.0
1.0 0.3749999999990478 0.0
1.0 0.3999999999989749 0.0
1.0 0.4249999999989048 0.0
1.0 0.4499999999988346 0.0
1.0 0.4749999999987644 0.0
1.0 0.4999999999986943 0.0
1.0 0.5249999999987575 0.0
1.0 0.5499999999988205 0.0
1.0 0.5749999999988837 0.0
1.0 0.5999999999989468 0.0
1.0 0.6249999999990127 0.0
1.0 0.6499999999990784 0.0
1.0 0.6749999999991443 0.0
1.0 0.69999999999921 0.0
1.0 0.7249999999992759 0.0
1.0 0.7499999999993416 0.0
1.0 0.7749999999994075 0.0
1.0 0.7999999999994734 0.0
1.0 0.8249999999995392 0.0
1.0 0.8499999999996051 0.0
1.0 0.8749999999996709 0.0
1.0 0.8999999999997368 0.0
1.0 0.9249999999998026 0.0
1.0 0.9499999999998684 0.0
1.0 0.9749999999999343 0.0
0.9749999999998877 1.0 0.0
0.9499999999998356 1.0 0.0
0.9249999999996992 1.0 0.0
0.8999999999995836 1.0 0.0
0.8749999999997078 1.0 0.0
0.8499999999998515 1.0 0.0
0.8249999999999216 1.0 0.0
0.7999999999999998 1.0 0.0
0.77500000000021 1.0 0.0
0.7500000000003858 1.0 0.0
0.7250000000005448 1.0 0.0
0.7000000000006934 1.0 0.0
0.6750000000009306 1.0 0.0
0.6500000000010593 1.0 0.0
0.6250000000012101 1.0 0.0
0.6000000000013869 1.0 0.0
0.5750000000015277 1.0 0.0
0.5500000000016854 1.0 0.0
0.5250000000018821 1.0 0.0
0.5000000000020587 1.0 0.0
0.4750000000019601 1.0 0.0
0.4500000000018616 1.0 0.0
0.425000000001763 1.0 0.0
0.4000000000016644 1.0 0.0
0.3750000000015603 1.0 0.0
0.3500000000014563 1.0 0.0
0.3250000000013522 1.0 0.0
0.3000000000012483 1.0 0.0
0.2750000000011442 1.0 0.0
0.2500000000010403 1.0 0.0
0.2250000000009362 1.0 0.0
0.2000000000008322 1.0 0.0
0.1750000000007281 1.0 0.0
0.1500000000006241 1.0 0.0
0.12500000000052 1.0 0.0
0.100000000000416 1.0 0.0
0.07500000000031193 1.0 0.0
0.05000000000020799 1.0 0.0
0.02500000000010394 1.0 0.0
0.0 0.9749999999998877 0.0
0.0 0.9499999999998356 0.0
0.0 0.9249999999996992 0.0
0.0 0.8999999999995836 0.0
0.0 0.8749999999997078 0.0
0.0 0.8499999999998515 0.0
0.0 0.8249999999999216 0.0
0.0 0.7999999999999998 0.0
0.0 0.77500000000021 0.0
0.0 0.7500000000003858 0.0
0.0 0.7250000000005448 0.0
0.0 0.7000000000006934 0.0
0.0 0.6750000000009306 0.0
0.0 0.6500000000010593 0.0
0.0 0.6250000000012101 0.0
0.0 0.6000000000013869 0.0
0.0 0.5750000000015277 0.0
0.0 0.5500000000016854 0.0
0.0 0.5250000000018821 0.0
0.0 0.5000000000020587 0.0
0.0 0.4750000000019601 0.0
0.0 0.4500000000018616 0.0
0.0 0.425000000001763 0.0
0.0 0.4000000000016644 0.0
0.0 0.3750000000015603 0.0
0.0 0.3500000000014563 0.0
0.0 0.3250000000013522 0.0
0.0 0.3000000000012483 0.0
0.0 0.2750000000011442 0.0
0.0 0.2500000000010403 0.0
0.0 0.2250000000009362 0.0
0.0 0.2000000000008322 0.0
0.0 0.1750000000007281 0.0
0.0 0.1500000000006241 0.0
0.0 0.12500000000052 0.0
0.0 0.100000000000416 0.0
0.0 0.07500000000031193 0.0
0.0 0.05000000000020799 0.0
0.0 0.02500000000010394 0.0
0.499475559262911 0.49733817513189504 0.0
0.7050969024672236 0.7038532372424218 0.0
0.2945901692568507 0.7065571304551173 0.0
0.7042605511371729 0.2947329338818596 0.0
0.2944399248553856 0.29451319399767095 0.0
0.4938420331702748 0.7871909590719653 0.0
0.21359863203681972 0.4949808732599596 0.0
0.7895261794968331 0.5061408539158909 0.0
0.5061181277210005 0.21037258962369415 0.0
0.8289033628673366 0.8291206886456077 0.0
0.1708469941104095 0.8289229942067222 0.0
0.829122031533557 0.17109531510206083 0.0
0.17111604908440944 0.17086117524581923 0.0
0.6411639827187721 0.8530393548135381 0.0
0.14735990282682118 0.6420151923760986 0.0
0.35988508942830355 0.847004621754407 0.0
0.8471860236774795 0.639971374323324 0.0
0.8531096031747767 0.35881945357386924 0.0
0.15315037738230716 0.35998838486130147 0.0
0.358810551304107 0.14685030838763008 0.0
0.6399759736617123 0.15280517460030107 0.0
0.5657118015177651 0.6418343105513475 0.0
0.3702475691364918 0.5811173143732409 0.0
0.647465972120427 0.45330922266153684 0.0
0.43390061403888847 0.3510347732616804 0.0
0.4234897123627652 0.6538587162893692 0.0
0.6660387719153733 0.5473227157168399 0.0
0.36245338527048787 0.42536479894014356 0.0
0.5387742992181301 0.34631192625315566 0.0
0.45891201101023976 0.8930419175161366 0.0
0.10736701320905928 0.45940345962350554 0.0
0.8931773262591631 0.5410720386692545 0.0
0.5410729204069248 0.10681863426604293 0.0
0.7386975983904491 0.9035957043328893 0.0
0.09639458328462397 0.7387596988579823 0.0
0.9035976167021256 0.26130131340660656 0.0
0.261303196036194 0.09639732159683387 0.0
0.9018153073126154 0.737579460148221 0.0
0.26239427748027133 0.901798461255267 0.0
0.737579925402549 0.09818383649237736 0.0
0.0982285732587932 0.2624097077718782 0.0
0.6056871185603857 0.7447499680927023 0.0
0.25550465289505 0.6081133865165902 0.0
0.7465167200868591 0.3946224800064208 0.0
0.39384971763751203 0.25237586126242306 0.0
0.3924077892482704 0.7453658083651618 0.0
0.7469478446682001 0.6055752923699336 0.0
0.2559980007279122 0.39305740151861346 0.0
0.6055168573505693 0.2533380971165539 0.0
0.9104861577576799 0.910512921401407 0.0
0.08948604693011447 0.9104863789546558 0.0
0.9105129229152336 0.08951384071217075 0.0
0.08951439022389032 0.08948680966645994 0.0
0.5668068842043881 0.9184076232115317 0.0
0.08204690405590108 0.5672481585651569 0.0
0.9184159779235355 0.4331911457623314 0.0
0.43319127933117735 0.08158277844739534 0.0
0.7928845691952986 0.7207379557530306 0.0
0.2789865586756975 0.7929390414964583 0.0
0.7207744185719815 0.2070781171590184 0.0
0.2072971935195554 0.27908004294721966 0.0
0.7213626300435856 0.7945561097011926 0.0
0.20536175023233924 0.7219593369566705 0.0
0.7946297056568027 0.2785993577019743 0.0
0.27858965827114585 0.2052423294988775 0.0
0.48143535767008694 0.5873527073532542 0.0
0.5811336554218043 0.541011259181374 0.0
0.41047293587125816 0.5019140195744491 0.0
0.5612299042112097 0.4309959236858929 0.0
0.6465329917972248 0.6347169155184555 0.0
0.34881300009027694 0.6574546318781287 0.0
0.6372394615879042 0.3553092709181802 0.0
0.34587428359345557 0.3475659198110296 0.0
0.6501093871608354 0.9337757326591962 0.0
0.06627644690404341 0.6501827072644071 0.0
0.9337763597627202 0.34989048046057897 0.0
0.3498905304493748 0.06622321280667917 0.0
0.9282178836409478 0.644024363623176 0.0
0.6440243933265902 0.07178200550393393 0.0
0.3559656342027112 0.9282045336499943 0.0
0.0718242743967158 0.35600372379572 0.0
0.8309456108933448 0.9257452583116693 0.0
0.07425234410706455 0.8309469205409703 0.0
0.9257452670199302 0.16905438169225323 0.0
0.16905493016395798 0.07425373693771026 0.0
0.925411158036288 0.830925957037489 0.0
0.8309259622200833 0.07458883503615277 0.0
0.16907110184737656 0.9254100194573303 0.0
0.07459303797007649 0.16907320652798197 0.0
0.4994497716282873 0.6951660091142066 0.0
0.3068568712974233 0.5027448029904495 0.0
0.7154379215631829 0.4983202555115587 0.0
0.49682413429834565 0.28464791253399946 0.0
0.5543834472571074 0.8377741642074432 0.0
0.16342419165956457 0.5560271816113402 0.0
0.8380746637771362 0.44561044185164045 0.0
0.4456088882570035 0.16188029496877232 0.0
0.42716376791075217 0.8174017936281011 0.0
0.1829033691591463 0.42744066551857807 0.0
0.8180234793570906 0.5726558455427702 0.0
0.5726599413408329 0.18196166588002705 0.0
0.4658382293336628 0.42586842083790144 0.0
0.5020587259693546 0.3866747933245478 0.0
0.5517283317470997 0.3864709802692513 0.0
0.5152384921946177 0.42603373847518156 0.0
0.9560843471866907 0.09325715899020828 0.0
0.9535463246608105 0.046457817135342125 0.0
0.09325721028916706 0.043915572875542194 0.0
0.04645785795419752 0.04645367359971077 0.0
0.9067428409479307 0.9560843471041839 0.0
0.9535421828520876 0.9535463246483853 0.0
0.04391537635622998 0.9067429340789233 0.0
0.04645357498770461 0.9535422306738006 0.0
0.9067494356834269 0.04393979031984689 0.0
0.04394003166084484 0.09325058407830142 0.0
0.9560602096013366 0.9067494356260517 0.0
0.09325032567333326 0.9560602609571429 0.0
0.4862595504298914 0.3499183869727787 0.0
0.4498580519844422 0.3890109794117216 0.0
0.4577591778721526 0.6732523316866295 0.0
0.453074255487004 0.7200484242183893 0.0
0.41471148454735796 0.6928362688305307 0.0
0.691063699041008 0.5234913163362922 0.0
0.7281992781400037 0.54324367966215 0.0
0.6983920011064869 0.5738468336222186 0.0
0.3315419533853716 0.4616814825999963 0.0
0.28199762581643706 0.45454129562947343 0.0
0.3120893048801259 0.41599929347042847 0.0
0.5192435610856783 0.31157240508014006 0.0
0.5426284210370399 0.27238303995731955 0.0
0.5723464005132175 0.3044846830851564 0.0
[...]
POINT_DATA 2017
VECTORS vector double
0.0 0.0 0.0
0.0 0.0 0.0
1.0 0.0 0.0
1.0 0.0 0.0
0.0 0.0 0.0
0.0 0.0 0.0
0.0 0.0 0.0
0.0 0.0 0.0
0.0 0.0 0.0
0.0 0.0 0.0
0.0 0.0 0.0
0.0 0.0 0.0
0.0 0.0 0.0
0.0 0.0 0.0
0.0 0.0 0.0
0.0 0.0 0.0
0.0 0.0 0.0
0.0 0.0 0.0
0.0 0.0 0.0
0.0 0.0 0.0
0.0 0.0 0.0
0.0 0.0 0.0
0.0 0.0 0.0
0.0 0.0 0.0
0.0 0.0 0.0
0.0 0.0 0.0
0.0 0.0 0.0
0.0 0.0 0.0
0.0 0.0 0.0
0.0 0.0 0.0
0.0 0.0 0.0
0.0 0.0 0.0
0.0 0.0 0.0
0.0 0.0 0.0
0.0 0.0 0.0
0.0 0.0 0.0
0.0 0.0 0.0
0.0 0.0 0.0
0.0 0.0 0.0
0.0 0.0 0.0
0.0 0.0 0.0
0.0 0.0 0.0
0.0 0.0 0.0
0.0 0.0 0.0
0.0 0.0 0.0
0.0 0.0 0.0
0.0 0.0 0.0
0.0 0.0 0.0
0.0 0.0 0.0
0.0 0.0 0.0
0.0 0.0 0.0
0.0 0.0 0.0
0.0 0.0 0.0
0.0 0.0 0.0
0.0 0.0 0.0
0.0 0.0 0.0
0.0 0.0 0.0
0.0 0.0 0.0
0.0 0.0 0.0
0.0 0.0 0.0
0.0 0.0 0.0
0.0 0.0 0.0
0.0 0.0 0.0
0.0 0.0 0.0
0.0 0.0 0.0
0.0 0.0 0.0
0.0 0.0 0.0
0.0 0.0 0.0
0.0 0.0 0.0
0.0 0.0 0.0
0.0 0.0 0.0
0.0 0.0 0.0
0.0 0.0 0.0
0.0 0.0 0.0
0.0 0.0 0.0
0.0 0.0 0.0
0.0 0.0 0.0
0.0 0.0 0.0
0.0 0.0 0.0
0.0 0.0 0.0
0.0 0.0 0.0
0.0 0.0 0.0
1.0 0.0 0.0
1.0 0.0 0.0
1.0 0.0 0.0
1.0 0.0 0.0
1.0 0.0 0.0
1.0 0.0 0.0
1.0 0.0 0.0
1.0 0.0 0.0
1.0 0.0 0.0
1.0 0.0 0.0
1.0 0.0 0.0
1.0 0.0 0.0
1.0 0.0 0.0
1.0 0.0 0.0
1.0 0.0 0.0
1.0 0.0 0.0
1.0 0.0 0.0
1.0 0.0 0.0
1.0 0.0 0.0
1.0 0.0 0.0
1.0 0.0 0.0
1.0 0.0 0.0
1.0 0.0 0.0
1.0 0.0 0.0
1.0 0.0 0.0
1.0 0.0 0.0
1.0 0.0 0.0
1.0 0.0 0.0
1.0 0.0 0.0
1.0 0.0 0.0
1.0 0.0 0.0
1.0 0.0 0.0
1.0 0.0 0.0
1.0 0.0 0.0
1.0 0.0 0.0
1.0 0.0 0.0
1.0 0.0 0.0
1.0 0.0 0.0
1.0 0.0 0.0
0.0 0.0 0.0
0.0 0.0 0.0
0.0 0.0 0.0
0.0 0.0 0.0
0.0 0.0 0.0
0.0 0.0 0.0
0.0 0.0 0.0
0.0 0.0 0.0
0.0 0.0 0.0
0.0 0.0 0.0
0.0 0.0 0.0
0.0 0.0 0.0
0.0 0.0 0.0
0.0 0.0 0.0
0.0 0.0 0.0
0.0 0.0 0.0
0.0 0.0 0.0
0.0 0.0 0.0
0.0 0.0 0.0
0.0 0.0 0.0
0.0 0.0 0.0
0.0 0.0 0.0
0.0 0.0 0.0
0.0 0.0 0.0
0.0 0.0 0.0
0.0 0.0 0.0
0.0 0.0 0.0
0.0 0.0 0.0
0.0 0.0 0.0
0.0 0.0 0.0
0.0 0.0 0.0
0.0 0.0 0.0
0.0 0.0 0.0
0.0 0.0 0.0
0.0 0.0 0.0
0.0 0.0 0.0
0.0 0.0 0.0
0.0 0.0 0.0
0.0 0.0 0.0
-0.179807498203 -0.000465421277408 0.0
-0.171465649421 -0.200488990495 0.0
-0.145585885277 0.201404917486 0.0
-0.0696327384835 -0.051326210304 0.0
-0.0716556787144 0.0483077975688 0.0
0.00614864822173 0.017290791344 0.0
-0.0939991373951 0.147727769843 0.0
-0.101435271296 -0.157353798847 0.0
-0.0778110924437 -0.0022216526817 0.0
-0.0836431700239 -0.300704153792 0.0
-0.0631557882955 0.300962932767 0.0
-0.0173105487571 -0.016811462906 0.0
-0.020742589922 0.0184142643986 0.0
0.189809180695 -0.0677545611921 0.0
-0.0834679857922 0.2391252357 0.0
0.142938838222 0.0883389120693 0.0
-0.104712648026 -0.249481125046 0.0
-0.0315998107403 -0.0651868737927 0.0
-0.0378400163381 0.0733179986431 0.0
-0.0488838447477 0.0106399139523 0.0
-0.0484416633413 -0.0128012556526 0.0
-0.198714335432 -0.0576364014409 0.0
-0.183937173075 0.112215933411 0.0
-0.149282935319 -0.0899032044289 0.0
-0.124383957004 0.0239112448323 0.0
-0.182396965247 0.0798431844224 0.0
-0.176384633117 -0.133312432209 0.0
-0.137788888177 0.0692572332641 0.0
-0.125240842519 -0.0176800154604 0.0
0.399399059427 0.0168373196055 0.0
-0.0302713605074 0.101042058999 0.0
-0.0405317354446 -0.136269392704 0.0
-0.0442869020089 -0.00238331185421 0.0
0.334572527767 -0.0798193239364 0.0
-0.0592260611769 0.2794010374 0.0
-0.00948096398994 -0.0236946230152 0.0
-0.0234629155089 0.0068600824883 0.0
-0.0843905077192 -0.304013205381 0.0
0.276218596899 0.100290440298 0.0
-0.0215276925001 -0.0072682367046 0.0
-0.0124921004642 0.0296481494262 0.0
-0.096439865973 -0.0865976504234 0.0
-0.145208543973 0.199983032777 0.0
-0.0882421893349 -0.0942113757603 0.0
-0.0877695925062 0.0213764877167 0.0
-0.0898404491766 0.107079672696 0.0
-0.164240744789 -0.209112475386 0.0
-0.0915226422578 0.09020576139 0.0
-0.0859801537296 -0.0250746431351 0.0
-0.0176305391692 -0.330788757659 0.0
-0.0302080489369 0.318943148196 0.0
-0.00231588081398 -0.00235704587954 0.0
-0.00311868373545 0.00307165007512 0.0
0.525050651426 -0.0100634620779 0.0
-0.0268989796458 0.137062494722 0.0
-0.0150751945741 -0.0626412465117 0.0
-0.0340487173404 0.00184804915004 0.0
-0.155369211402 -0.288844574013 0.0
-0.05465142831 0.198518391375 0.0
-0.046589374083 -0.0278455587071 0.0
-0.0451811051543 0.0487156453379 0.0
-0.0549524382649 -0.185055921755 0.0
-0.122145003693 0.276019314282 0.0
-0.039827939918 -0.0469615493161 0.0
-0.0500038981643 0.0262807885112 0.0
-0.205702359936 0.0198611433027 0.0
-0.19966024499 -0.0661328980256 0.0
-0.177696829436 0.0624777415717 0.0
-0.158404638846 -0.0372641368679 0.0
-0.197650651398 -0.137788296239 0.0
-0.170880356631 0.147448331238 0.0
-0.112287149221 -0.0557460871122 0.0
-0.0996679286387 0.0529624629814 0.0
0.573413408551 -0.0214106188053 0.0
-0.024932850508 0.165334615019 0.0
-0.00661485154433 -0.0312851349913 0.0
-0.0232132558466 0.00264533687905 0.0
-0.0329882155236 -0.166102561364 0.0
-0.0244662845553 -0.0033802789414 0.0
0.517278827188 0.0263738489989 0.0
-0.00965004887058 0.0436317578356 0.0
0.303013158884 -0.117172053429 0.0
-0.0578940748962 0.322863916252 0.0
-0.00338433596804 -0.00722580141216 0.0
-0.00859095371735 0.00378359063847 0.0
-0.0973951998232 -0.380708486905 0.0
-0.007247291313 -0.00343536601991 0.0
0.219310534349 0.154176351727 0.0
-0.00442539122595 0.00946583259999 0.0
-0.15719839644 0.0111550471714 0.0
-0.144271784238 0.124118741913 0.0
-0.136284788767 -0.138517275481 0.0
-0.0979899019174 -0.00100794142765 0.0
0.151876522579 -0.0208522761921 0.0
-0.0744831764661 0.18309685306 0.0
-0.052214684 -0.11037098378 0.0
-0.0588010259141 0.00489079934523 0.0
0.0211627936376 0.0589095496588 0.0
-0.0486086918159 0.109050293835 0.0
-0.0926903533431 -0.20158675289 0.0
-0.0529389422852 -0.0102276771648 0.0
-0.157451649392 0.0169089800109 0.0
-0.142930625259 -0.00323699039789 0.0
-0.140485478121 -0.0270717484798 0.0
-0.159137933447 -0.0106784725135 0.0
-0.000550477661582 -0.000890860225373 0.0
-0.000126919738228 -0.000117737621152 0.0
-0.0013662748669 0.000772773701788 0.0
-0.000249725869553 0.000238223331232 0.0
0.313394843143 -0.142517973149 0.0
0.0661674329061 -0.304772867252 0.0
-0.0547771900593 0.320526402028 0.0
0.00918137610366 0.265173960758 0.0
-0.000939562509564 -0.000576588074223 0.0
-0.000801872961641 0.00137235927075 0.0
-0.0857872399387 -0.416882830942 0.0
0.206577752464 0.172580288225 0.0
-0.127746603349 0.00332480949941 0.0
-0.141057043371 0.0215690465012 0.0
-0.174390570317 0.049505440726 0.0
-0.126012195913 0.0551983878465 0.0
-0.156678667909 0.0902814074406 0.0
-0.16173481854 -0.139372700369 0.0
-0.152543109684 -0.166698241369 0.0
-0.177581271426 -0.16471088146 0.0
-0.140710588451 0.095720171825 0.0
-0.118605331155 0.112164988118 0.0
-0.11831717806 0.0859669203418 0.0
-0.112372947273 -0.00851531640732 0.0
-0.0972652976504 -0.0128699320119 0.0
-0.106305570195 -0.0248647047061 0.0
-0.183536311361 0.0865183991981 0.0
-0.194964641102 0.0462462713254 0.0
-0.19633111654 0.0691958742551 0.0
-0.195593187586 0.0533912533845 0.0
-0.189770340005 0.094306162797 0.0
-0.175620618687 -0.0811270868362 0.0
-0.17865968918 -0.0496670701148 0.0
-0.155251762024 -0.0636496971571 0.0
-0.168031729186 -0.110761495047 0.0
-0.189865526382 -0.105874565059 0.0
-0.0919618018592 0.0134332971544 0.0
-0.0516635352643 0.0537189189005 0.0
-0.120845579046 0.142052953579 0.0
-0.095370156194 0.121515077417 0.0
-0.123797776256 -0.149906589849 0.0
-0.131645947798 -0.182654907875 0.0
-0.0911407026296 -0.00166453825743 0.0
-0.0831291135309 -0.0108437610117 0.0
-0.114320688007 0.233876873798 0.0
-0.134916686534 0.243926069502 0.0
-0.109243380336 0.268513951219 0.0
0.0296120147897 -0.0854389041244 0.0
-0.068070715253 -0.139402251251 0.0
0.0564276953596 -0.119116846489 0.0
-0.064559921578 0.0161017729522 0.0
-0.0666304738582 0.0262716857186 0.0
-0.0510988506951 0.017689481501 0.0
-0.0538962275782 -0.0813671814296 0.0
-0.0577760211754 -0.0673941306063 0.0
-0.0366709150233 -0.0572206261596 0.0
-0.136106482916 0.237770033224 0.0
-0.15314719339 0.210413370348 0.0
-0.131424493699 -0.199320193238 0.0
-0.146650475171 -0.154356138377 0.0
-0.0634515964112 0.0374571800691 0.0
-0.080466477524 0.0369470637736 0.0
-0.0574391434054 -0.0521049967664 0.0
-0.0777120603757 -0.0672037114484 0.0
-0.13806992166 -0.283976301709 0.0
-0.163775502948 -0.254893413638 0.0
-0.138429425185 -0.245434050519 0.0
0.0327491483781 0.139465834803 0.0
-0.0667483349339 0.155674158334 0.0
0.00726119689348 0.109762119469 0.0
-0.048751881233 -0.0197621930957 0.0
-0.0638509734291 -0.029288230623 0.0
-0.0628748303593 -0.0193673374459 0.0
-0.0423017216234 0.0613883189032 0.0
-0.0625627230646 0.0672173840541 0.0
-0.0589290946188 0.0829012123118 0.0
-0.150872937449 0.0446886704919 0.0
-0.133011917393 0.0445243742181 0.0
0.70664349884 0.00459745401231 0.0
0.707772165997 0.00165278839538 0.0
-0.00619628184756 0.0467065778669 0.0
-0.00777752757534 0.0625804618654 0.0
-0.0104511559145 -0.0807977173711 0.0
-0.00871734429754 -0.062591631378 0.0
-0.0208006432233 -0.00087263918105 0.0
-0.0225379882418 -0.000274301050496 0.0
-0.0102771139869 -0.0913653102042 0.0
-0.0351917269096 -0.15362833589 0.0
-0.0161318229237 -0.00104296471669 0.0
-0.0325153643047 -0.00353405299822 0.0
0.733003873648 0.00645127114874 0.0
0.479332419368 0.0224454597408 0.0
-0.00382502410436 0.030682348133 0.0
-0.0159160366836 0.0635649152672 0.0
-0.14314688529 -0.115666624356 0.0
-0.112920445889 0.00884568138024 0.0
-0.180398283762 -0.215862753783 0.0
-0.164994722939 -0.242786819244 0.0
-0.128228211143 0.163808178278 0.0
-0.113678207985 0.205090132547 0.0
-0.0782512039368 -0.0404250974017 0.0
-0.0599063538635 -0.0397816365167 0.0
-0.0801019700161 0.0640494963891 0.0
-0.0617892865292 0.0508720478675 0.0
-0.177437049131 0.113865351967 0.0
-0.179631361214 0.134517058512 0.0
-0.118993737567 0.0620845777256 0.0
-0.11525701073 0.0409199830855 0.0
-0.168565962076 0.0395677534409 0.0
-0.157871248806 0.0699336308601 0.0
-0.199183873909 0.00686194061532 0.0
-0.18522452022 0.0280806801493 0.0
-0.176149873477 -0.019669702455 0.0
-0.194295582522 -0.0267583653551 0.0
-0.0705025975228 -0.197756001047 0.0
-0.0654465610898 -0.219081205793 0.0
-0.046800068718 -0.00719343750827 0.0
-0.0360435015455 -0.00713165509956 0.0
0.265169994851 0.0472260605649 0.0
0.324750363869 0.05503952374 0.0
-0.0334866545116 0.0853786761751 0.0
-0.021342681132 0.0602637181615 0.0
0.675818178143 -0.0189180719929 0.0
0.622530877783 -0.0283094471042 0.0
-0.0162557839733 0.159253588836 0.0
-0.0205862634007 0.197041038056 0.0
-0.0021366777657 -0.0123567483559 0.0
-0.00178734613332 -0.00829063880266 0.0
-0.0122525948519 0.00148973668122 0.0
-0.00930735755206 0.00164008964988 0.0
-0.0314857737919 -0.217187245115 0.0
-0.0220505926463 -0.165062172692 0.0
-0.00825361191091 -0.00167473146935 0.0
-0.0115648179593 -0.00167758683933 0.0
0.58135032906 0.0366535844464 0.0
0.646528560773 0.0214668337185 0.0
-0.00253719092143 0.0115774771167 0.0
-0.00308886808915 0.0173867268148 0.0
0.482101683135 -3.92643094031e-05 0.0
0.737877332813 -0.0015230547956 0.0
-0.0272103885864 0.119442937851 0.0
-0.00754414923998 0.072292674698 0.0
-0.0230813823985 -0.0895695487511 0.0
-0.00542418348555 -0.0426590730407 0.0
-0.0387248013652 0.000503427584737 0.0
-0.020338357473 0.000297946887665 0.0
-0.0993934536655 -0.280756456286 0.0
-0.134064401193 -0.322642796841 0.0
0.191378482805 0.101368386004 0.0
0.0518468060095 0.168632429397 0.0
-0.0356869434468 -0.0113944304677 0.0
-0.034110587779 -0.0169280675739 0.0
-0.0245655831773 0.0510970424208 0.0
-0.0282737990454 0.0419759265129 0.0
0.0837401924338 -0.00725674491885 0.0
0.260079827194 0.00225683017991 0.0
0.152739465336 0.0202934508233 0.0
-0.0864937106658 0.168772176187 0.0
-0.0545074489505 0.149270712327 0.0
-0.0640090117948 0.137394783006 0.0
-0.074260354516 -0.132599800557 0.0
-0.0494820908595 -0.122830999429 0.0
-0.0747223960441 -0.156558748875 0.0
-0.0695494748565 0.00271172452639 0.0
-0.0548933908803 0.000744105998558 0.0
-0.0630201077547 -0.00276850465785 0.0
-0.199488725239 -0.0949973161993 0.0
-0.176769844399 -0.122336692543 0.0
-0.173297501578 -0.0726293136965 0.0
-0.166800115235 0.174403871794 0.0
-0.168019957643 0.154019509259 0.0
-0.129225273895 -0.0723186019429 0.0
-0.102980174916 -0.0747388216024 0.0
-0.121385299664 -0.09545652226 0.0
-0.0979981276985 0.0375197073109 0.0
-0.107036352976 0.0241110773861 0.0
0.0833244279325 -0.178692864468 0.0
0.0813287796123 -0.146754308982 0.0
-0.0614120170395 -0.235495137909 0.0
-0.0895293032146 0.327175398087 0.0
-0.0994092710472 0.300819902028 0.0
-0.102433525829 0.297345432023 0.0
-0.0146029110173 -0.0225325322035 0.0
-0.0233753884691 -0.0373197108677 0.0
-0.0273306774974 -0.0304983625546 0.0
-0.0244196923587 0.0129974885519 0.0
-0.0368913295756 0.0160192233304 0.0
-0.0349545215374 0.0236845071054 0.0
-0.184571344209 -0.171771097581 0.0
-0.158838660937 0.17450520582 0.0
-0.0900932473366 -0.0555249137774 0.0
-0.0898385297689 0.0517257653908 0.0
-0.207026705313 -0.0631486590846 0.0
-0.202831415201 -0.102449246458 0.0
-0.193717684434 -0.139299488381 0.0
-0.13578390007 -0.0497001593136 0.0
-0.119400490163 -0.0369771356462 0.0
0.758662685161 -0.00363984334274 0.0
-0.00740707945965 0.0818129339356 0.0
-0.00348171691024 -0.0289428812292 0.0
-0.0174685253067 0.00061016508482 0.0
0.0482279090003 0.0450605408333 0.0
0.00101229521839 0.0767622809219 0.0
-0.104258187892 -0.183911482023 0.0
-0.128810478503 -0.211317283858 0.0
-0.0725128890396 0.124403216673 0.0
-0.0714269836165 0.104695153304 0.0
-0.069662325463 -0.00775069869741 0.0
-0.0708447766212 -0.0147762401413 0.0
0.313324861845 -0.100503383193 0.0
0.591679612963 -0.0371769206044 0.0
-0.0587150074839 0.308619911021 0.0
-0.0231411537122 0.221229924768 0.0
-0.00572541201194 -0.0131798409421 0.0
-0.00112881418242 -0.00448150954494 0.0
-0.014560040463 0.00551968231075 0.0
-0.00560409135493 0.00127119148991 0.0
-0.0401769287626 -0.261829805803 0.0
-0.0930994733282 -0.350383786838 0.0
-0.00465955851635 -0.0011826761235 0.0
-0.0126678276615 -0.00537896016567 0.0
0.535648335372 0.0534600276146 0.0
0.242695172937 0.130860685029 0.0
-0.00159455458524 0.00635345742759 0.0
-0.00756209949811 0.0168069542223 0.0
-0.0761564268399 0.265347744368 0.0
0.239660388679 -0.0826966481244 0.0
-0.0371281440652 0.0101461541828 0.0
-0.0196888768113 -0.043276877002 0.0
-0.135668153926 -0.308607865734 0.0
-0.130353976598 -0.355850849713 0.0
-0.0554141889452 0.245866127342 0.0
0.0503640046556 0.205174459909 0.0
-0.031164967289 -0.0235613293679 0.0
-0.0215605299631 -0.0128553569156 0.0
-0.0319490213465 0.032575248357 0.0
-0.0181686037983 0.0262053978803 0.0
-0.000826097443873 -0.0022708190826 0.0
0.502848344796 -0.0639639731711 0.0
-0.00311774765214 0.00104644852247 0.0
-0.033947847064 0.264394099837 0.0
-0.0627476684799 -0.3376958289 0.0
-0.00239956495896 -0.000885586254745 0.0
0.417463344891 0.0927323106797 0.0
-0.00116023450131 0.00329857888444 0.0
0.317364069794 -0.0158335161899 0.0
-0.0526411447258 0.16913622357 0.0
-0.0338661388135 -0.0923749980992 0.0
-0.0489274610844 0.00333905590415 0.0
-0.00330355799859 -0.00498932698172 0.0
-0.00627441192038 0.00402079625767 0.0
0.14574925522 -0.199983479422 0.0
-0.0650150366094 0.349569545352 0.0
-0.106595735752 -0.40420123473 0.0
-0.00496122365537 -0.00340681047538 0.0
0.0819348232869 0.23480792025 0.0
-0.00437396880157 0.00646387737053 0.0
-0.131548295483 -0.251900166006 0.0
-0.107814107412 0.25134774907 0.0
-0.0429731799246 -0.036827957036 0.0
-0.0474699051624 0.0365863513938 0.0
-0.13239006278 -0.0327849351796 0.0
-0.183575385263 -0.0277673331454 0.0
-0.14681151744 0.156875700452 0.0
-0.167423649406 0.124473708754 0.0
-0.118234229043 -0.120267447839 0.0
-0.0982533305134 0.0103279523208 0.0
0.171354281287 0.0426834364513 0.0
-0.0503205782143 0.110604885283 0.0
0.10250121653 0.0719804166643 0.0
-0.0508478370404 0.0946263218994 0.0
-0.0814571798174 -0.185081068791 0.0
-0.0575194666887 -0.00669824150577 0.0
-0.10588917088 -0.220455870609 0.0
-0.0581236805439 -0.0119077253566 0.0
0.742420048478 -0.00989622052252 0.0
0.478158543121 -0.0403547895225 0.0
-0.0101952976425 0.116326844905 0.0
-0.0389082442648 0.215091648355 0.0
0.424815008529 0.0495343261307 0.0
0.384259602288 -0.0425169378851 0.0
-0.0511109905312 0.214459338716 0.0
-0.0512053971146 -0.2229129336 0.0
-0.0111156581369 0.0378728347442 0.0
-0.0242078782816 -0.00497303753596 0.0
0.717272123589 0.00997232948216 0.0
-0.0131024142336 -0.11560072507 0.0
-0.00306901109219 0.0221697638957 0.0
-0.0133004420889 -0.00126221472481 0.0
-0.00198172030569 -0.0151138705885 0.0
-0.00812739363961 -0.0288677498332 0.0
-0.0130867556551 0.000983018040841 0.0
-0.0246980865832 0.004281547992 0.0
-0.015971217771 -0.0474851257131 0.0
-0.0352246445539 0.00584008728343 0.0
-0.0441148275569 -0.0241277747289 0.0
-0.119226315752 0.173600680324 0.0
-0.0957875474405 -0.12758264281 0.0
-0.0838662194304 0.00685011427693 0.0
-0.193771485476 0.0130567660842 0.0
-0.204694063313 -0.0238159841238 0.0
-0.163595653146 0.096162934946 0.0
0.0840946934137 -0.206751238826 0.0
-0.076968117121 0.343680757924 0.0
-0.119716769566 -0.378544046717 0.0
-0.00830882585464 -0.0122296539319 0.0
0.0463463292165 0.236983262151 0.0
-0.0141798425489 0.00889778792451 0.0
-0.0119033619166 -0.0081612729299 0.0
-0.0105493579277 0.0147509663528 0.0
0.166708924434 -0.0443147624973 0.0
0.0336463227732 -0.0451281644808 0.0
-0.0831076893643 0.20949458996 0.0
-0.107294616473 0.200284329388 0.0
-0.0684369897255 -0.107374098114 0.0
-0.0439792421268 -0.0887818940245 0.0
-0.0571581583952 0.0084438635466 0.0
-0.0715695004428 0.0102640019904 0.0
-0.154136636734 0.133734483731 0.0
-0.188964465235 -0.178436418596 0.0
-0.100749591394 0.0694606479465 0.0
-0.0983379260719 -0.0400878515475 0.0
-0.05380308531 -0.319838807306 0.0
-0.0436009633489 0.318894983023 0.0
-0.00757227854231 -0.0076847466916 0.0
-0.00949169650522 0.00907098817457 0.0
-0.206293522872 -0.0263607877683 0.0
0.552140385438 -0.0169021108448 0.0
0.768458293885 -0.00598790681569 0.0
-0.0265169326739 0.154053427828 0.0
-0.00767802111672 0.092548696657 0.0
0.345512428768 -0.0314317015141 0.0
-0.0537663058758 0.193841579566 0.0
-0.0101173210661 -0.0441115026602 0.0
-0.00228778086284 -0.0197538002354 0.0
-0.0289605449998 0.00255791564079 0.0
-0.0145389631335 0.000733749644193 0.0
-0.0242448567355 -0.0681561758085 0.0
-0.0432013414632 0.00527845369642 0.0
-0.173101137844 0.00920012604062 0.0
-0.150674298133 0.00630625827945 0.0
-0.150907725328 -0.00678321226268 0.0
-0.158723524131 0.00297569488442 0.0
-0.142088432997 -0.0153552572984 0.0
-0.150308320243 -0.0195398168116 0.0
-0.134365669707 -0.011325612689 0.0
-0.132529298911 -0.0223484145428 0.0
-0.149117373769 -0.0319784352207 0.0
-0.159007491082 -0.0240537381221 0.0
-5.79519920251e-07 7.71708519935e-05 0.0
5.79116344621e-05 6.03290356938e-05 0.0
-6.95939480609e-05 -2.1939503945e-05 0.0
-0.000344199471513 -0.000415374537827 0.0
-0.000130245398952 -0.000248083539976 0.0
-0.00128001438139 -0.00161050725822 0.0
-0.000861908067629 -0.000864983959798 0.0
2.90791542431e-05 2.65811514099e-05 0.0
5.67432644805e-05 -6.0404019786e-05 0.0
-0.00016112689972 0.000118038098707 0.0
-0.000701454561458 0.000522944215605 0.0
-0.00050860234947 0.000192714814619 0.0
-0.00224353866609 0.00173807181452 0.0
-0.00125472791623 0.00123759883507 0.0
0.281842618845 -0.149104647641 0.0
-0.114032698847 -0.346362509873 0.0
0.46657848621 -0.0829632786701 0.0
0.179719121888 -0.21994110713 0.0
0.589908328006 -0.0487397822397 0.0
0.107116189978 -0.24607564259 0.0
0.000816334459095 -0.338168515788 0.0
-0.0416268326179 0.368346801783 0.0
-0.172776467236 0.296208177258 0.0
-0.0526551254538 0.289116428159 0.0
-0.0735569697384 0.318809749988 0.0
-0.0279595694437 0.23244195367 0.0
-0.0564596248442 0.342960400154 0.0
-0.0329758825055 0.312811631779 0.0
6.9084202448e-05 2.77065081683e-06 0.0
-0.000438092744258 -0.00034924421195 0.0
-4.292644744e-05 -7.10484462158e-05 0.0
-0.00162216029575 -0.00131928081384 0.0
-0.000292488541477 -0.000139479385043 0.0
-3.12674067645e-05 -3.92269173891e-05 0.0
-0.000536540437182 0.000689060493941 0.0